<?xml version="1.0"?>
<VTKFile type="UnstructuredGrid" version="0.1">
<UnstructuredGrid>
<Piece NumberOfPoints="3830" NumberOfCells="7422">
<Points>
<DataArray NumberOfComponents="3" type="Float64" format="ascii">
 0.000000e+00 0.000000e+00 0.000000e+00
 1.000000e+00 0.000000e+00 0.000000e+00
 1.000000e+00 1.000000e+00 0.000000e+00
 0.000000e+00 1.000000e+00 0.000000e+00
 1.694915e-02 0.000000e+00 0.000000e+00
 3.389831e-02 0.000000e+00 0.000000e+00
 5.084746e-02 0.000000e+00 0.000000e+00
 6.779661e-02 0.000000e+00 0.000000e+00
 8.474576e-02 0.000000e+00 0.000000e+00
 1.016949e-01 0.000000e+00 0.000000e+00
 1.186441e-01 0.000000e+00 0.000000e+00
 1.355932e-01 0.000000e+00 0.000000e+00
 1.525424e-01 0.000000e+00 0.000000e+00
 1.694915e-01 0.000000e+00 0.000000e+00
 1.864407e-01 0.000000e+00 0.000000e+00
 2.033898e-01 0.000000e+00 0.000000e+00
 2.203390e-01 0.000000e+00 0.000000e+00
 2.372881e-01 0.000000e+00 0.000000e+00
 2.542373e-01 0.000000e+00 0.000000e+00
 2.711864e-01 0.000000e+00 0.000000e+00
 2.881356e-01 0.000000e+00 0.000000e+00
 3.050847e-01 0.000000e+00 0.000000e+00
 3.220339e-01 0.000000e+00 0.000000e+00
 3.389831e-01 0.000000e+00 0.000000e+00
 3.559322e-01 0.000000e+00 0.000000e+00
 3.728814e-01 0.000000e+00 0.000000e+00
 3.898305e-01 0.000000e+00 0.000000e+00
 4.067797e-01 0.000000e+00 0.000000e+00
 4.237288e-01 0.000000e+00 0.000000e+00
 4.406780e-01 0.000000e+00 0.000000e+00
 4.576271e-01 0.000000e+00 0.000000e+00
 4.745763e-01 0.000000e+00 0.000000e+00
 4.915254e-01 0.000000e+00 0.000000e+00
 5.084746e-01 0.000000e+00 0.000000e+00
 5.254237e-01 0.000000e+00 0.000000e+00
 5.423729e-01 0.000000e+00 0.000000e+00
 5.593220e-01 0.000000e+00 0.000000e+00
 5.762712e-01 0.000000e+00 0.000000e+00
 5.932203e-01 0.000000e+00 0.000000e+00
 6.101695e-01 0.000000e+00 0.000000e+00
 6.271186e-01 0.000000e+00 0.000000e+00
 6.440678e-01 0.000000e+00 0.000000e+00
 6.610169e-01 0.000000e+00 0.000000e+00
 6.779661e-01 0.000000e+00 0.000000e+00
 6.949153e-01 0.000000e+00 0.000000e+00
 7.118644e-01 0.000000e+00 0.000000e+00
 7.288136e-01 0.000000e+00 0.000000e+00
 7.457627e-01 0.000000e+00 0.000000e+00
 7.627119e-01 0.000000e+00 0.000000e+00
 7.796610e-01 0.000000e+00 0.000000e+00
 7.966102e-01 0.000000e+00 0.000000e+00
 8.135593e-01 0.000000e+00 0.000000e+00
 8.305085e-01 0.000000e+00 0.000000e+00
 8.474576e-01 0.000000e+00 0.000000e+00
 8.644068e-01 0.000000e+00 0.000000e+00
 8.813559e-01 0.000000e+00 0.000000e+00
 8.983051e-01 0.000000e+00 0.000000e+00
 9.152542e-01 0.000000e+00 0.000000e+00
 9.322034e-01 0.000000e+00 0.000000e+00
 9.491525e-01 0.000000e+00 0.000000e+00
 9.661017e-01 0.000000e+00 0.000000e+00
 9.830508e-01 0.000000e+00 0.000000e+00
 1.000000e+00 1.694915e-02 0.000000e+00
 1.000000e+00 3.389831e-02 0.000000e+00
 1.000000e+00 5.084746e-02 0.000000e+00
 1.000000e+00 6.779661e-02 0.000000e+00
 1.000000e+00 8.474576e-02 0.000000e+00
 1.000000e+00 1.016949e-01 0.000000e+00
 1.000000e+00 1.186441e-01 0.000000e+00
 1.000000e+00 1.355932e-01 0.000000e+00
 1.000000e+00 1.525424e-01 0.000000e+00
 1.000000e+00 1.694915e-01 0.000000e+00
 1.000000e+00 1.864407e-01 0.000000e+00
 1.000000e+00 2.033898e-01 0.000000e+00
 1.000000e+00 2.203390e-01 0.000000e+00
 1.000000e+00 2.372881e-01 0.000000e+00
 1.000000e+00 2.542373e-01 0.000000e+00
 1.000000e+00 2.711864e-01 0.000000e+00
 1.000000e+00 2.881356e-01 0.000000e+00
 1.000000e+00 3.050847e-01 0.000000e+00
 1.000000e+00 3.220339e-01 0.000000e+00
 1.000000e+00 3.389831e-01 0.000000e+00
 1.000000e+00 3.559322e-01 0.000000e+00
 1.000000e+00 3.728814e-01 0.000000e+00
 1.000000e+00 3.898305e-01 0.000000e+00
 1.000000e+00 4.067797e-01 0.000000e+00
 1.000000e+00 4.237288e-01 0.000000e+00
 1.000000e+00 4.406780e-01 0.000000e+00
 1.000000e+00 4.576271e-01 0.000000e+00
 1.000000e+00 4.745763e-01 0.000000e+00
 1.000000e+00 4.915254e-01 0.000000e+00
 1.000000e+00 5.084746e-01 0.000000e+00
 1.000000e+00 5.254237e-01 0.000000e+00
 1.000000e+00 5.423729e-01 0.000000e+00
 1.000000e+00 5.593220e-01 0.000000e+00
 1.000000e+00 5.762712e-01 0.000000e+00
 1.000000e+00 5.932203e-01 0.000000e+00
 1.000000e+00 6.101695e-01 0.000000e+00
 1.000000e+00 6.271186e-01 0.000000e+00
 1.000000e+00 6.440678e-01 0.000000e+00
 1.000000e+00 6.610169e-01 0.000000e+00
 1.000000e+00 6.779661e-01 0.000000e+00
 1.000000e+00 6.949153e-01 0.000000e+00
 1.000000e+00 7.118644e-01 0.000000e+00
 1.000000e+00 7.288136e-01 0.000000e+00
 1.000000e+00 7.457627e-01 0.000000e+00
 1.000000e+00 7.627119e-01 0.000000e+00
 1.000000e+00 7.796610e-01 0.000000e+00
 1.000000e+00 7.966102e-01 0.000000e+00
 1.000000e+00 8.135593e-01 0.000000e+00
 1.000000e+00 8.305085e-01 0.000000e+00
 1.000000e+00 8.474576e-01 0.000000e+00
 1.000000e+00 8.644068e-01 0.000000e+00
 1.000000e+00 8.813559e-01 0.000000e+00
 1.000000e+00 8.983051e-01 0.000000e+00
 1.000000e+00 9.152542e-01 0.000000e+00
 1.000000e+00 9.322034e-01 0.000000e+00
 1.000000e+00 9.491525e-01 0.000000e+00
 1.000000e+00 9.661017e-01 0.000000e+00
 1.000000e+00 9.830508e-01 0.000000e+00
 9.830508e-01 1.000000e+00 0.000000e+00
 9.661017e-01 1.000000e+00 0.000000e+00
 9.491525e-01 1.000000e+00 0.000000e+00
 9.322034e-01 1.000000e+00 0.000000e+00
 9.152542e-01 1.000000e+00 0.000000e+00
 8.983051e-01 1.000000e+00 0.000000e+00
 8.813559e-01 1.000000e+00 0.000000e+00
 8.644068e-01 1.000000e+00 0.000000e+00
 8.474576e-01 1.000000e+00 0.000000e+00
 8.305085e-01 1.000000e+00 0.000000e+00
 8.135593e-01 1.000000e+00 0.000000e+00
 7.966102e-01 1.000000e+00 0.000000e+00
 7.796610e-01 1.000000e+00 0.000000e+00
 7.627119e-01 1.000000e+00 0.000000e+00
 7.457627e-01 1.000000e+00 0.000000e+00
 7.288136e-01 1.000000e+00 0.000000e+00
 7.118644e-01 1.000000e+00 0.000000e+00
 6.949153e-01 1.000000e+00 0.000000e+00
 6.779661e-01 1.000000e+00 0.000000e+00
 6.610169e-01 1.000000e+00 0.000000e+00
 6.440678e-01 1.000000e+00 0.000000e+00
 6.271186e-01 1.000000e+00 0.000000e+00
 6.101695e-01 1.000000e+00 0.000000e+00
 5.932203e-01 1.000000e+00 0.000000e+00
 5.762712e-01 1.000000e+00 0.000000e+00
 5.593220e-01 1.000000e+00 0.000000e+00
 5.423729e-01 1.000000e+00 0.000000e+00
 5.254237e-01 1.000000e+00 0.000000e+00
 5.084746e-01 1.000000e+00 0.000000e+00
 4.915254e-01 1.000000e+00 0.000000e+00
 4.745763e-01 1.000000e+00 0.000000e+00
 4.576271e-01 1.000000e+00 0.000000e+00
 4.406780e-01 1.000000e+00 0.000000e+00
 4.237288e-01 1.000000e+00 0.000000e+00
 4.067797e-01 1.000000e+00 0.000000e+00
 3.898305e-01 1.000000e+00 0.000000e+00
 3.728814e-01 1.000000e+00 0.000000e+00
 3.559322e-01 1.000000e+00 0.000000e+00
 3.389831e-01 1.000000e+00 0.000000e+00
 3.220339e-01 1.000000e+00 0.000000e+00
 3.050847e-01 1.000000e+00 0.000000e+00
 2.881356e-01 1.000000e+00 0.000000e+00
 2.711864e-01 1.000000e+00 0.000000e+00
 2.542373e-01 1.000000e+00 0.000000e+00
 2.372881e-01 1.000000e+00 0.000000e+00
 2.203390e-01 1.000000e+00 0.000000e+00
 2.033898e-01 1.000000e+00 0.000000e+00
 1.864407e-01 1.000000e+00 0.000000e+00
 1.694915e-01 1.000000e+00 0.000000e+00
 1.525424e-01 1.000000e+00 0.000000e+00
 1.355932e-01 1.000000e+00 0.000000e+00
 1.186441e-01 1.000000e+00 0.000000e+00
 1.016949e-01 1.000000e+00 0.000000e+00
 8.474576e-02 1.000000e+00 0.000000e+00
 6.779661e-02 1.000000e+00 0.000000e+00
 5.084746e-02 1.000000e+00 0.000000e+00
 3.389831e-02 1.000000e+00 0.000000e+00
 1.694915e-02 1.000000e+00 0.000000e+00
 0.000000e+00 9.830508e-01 0.000000e+00
 0.000000e+00 9.661017e-01 0.000000e+00
 0.000000e+00 9.491525e-01 0.000000e+00
 0.000000e+00 9.322034e-01 0.000000e+00
 0.000000e+00 9.152542e-01 0.000000e+00
 0.000000e+00 8.983051e-01 0.000000e+00
 0.000000e+00 8.813559e-01 0.000000e+00
 0.000000e+00 8.644068e-01 0.000000e+00
 0.000000e+00 8.474576e-01 0.000000e+00
 0.000000e+00 8.305085e-01 0.000000e+00
 0.000000e+00 8.135593e-01 0.000000e+00
 0.000000e+00 7.966102e-01 0.000000e+00
 0.000000e+00 7.796610e-01 0.000000e+00
 0.000000e+00 7.627119e-01 0.000000e+00
 0.000000e+00 7.457627e-01 0.000000e+00
 0.000000e+00 7.288136e-01 0.000000e+00
 0.000000e+00 7.118644e-01 0.000000e+00
 0.000000e+00 6.949153e-01 0.000000e+00
 0.000000e+00 6.779661e-01 0.000000e+00
 0.000000e+00 6.610169e-01 0.000000e+00
 0.000000e+00 6.440678e-01 0.000000e+00
 0.000000e+00 6.271186e-01 0.000000e+00
 0.000000e+00 6.101695e-01 0.000000e+00
 0.000000e+00 5.932203e-01 0.000000e+00
 0.000000e+00 5.762712e-01 0.000000e+00
 0.000000e+00 5.593220e-01 0.000000e+00
 0.000000e+00 5.423729e-01 0.000000e+00
 0.000000e+00 5.254237e-01 0.000000e+00
 0.000000e+00 5.084746e-01 0.000000e+00
 0.000000e+00 4.915254e-01 0.000000e+00
 0.000000e+00 4.745763e-01 0.000000e+00
 0.000000e+00 4.576271e-01 0.000000e+00
 0.000000e+00 4.406780e-01 0.000000e+00
 0.000000e+00 4.237288e-01 0.000000e+00
 0.000000e+00 4.067797e-01 0.000000e+00
 0.000000e+00 3.898305e-01 0.000000e+00
 0.000000e+00 3.728814e-01 0.000000e+00
 0.000000e+00 3.559322e-01 0.000000e+00
 0.000000e+00 3.389831e-01 0.000000e+00
 0.000000e+00 3.220339e-01 0.000000e+00
 0.000000e+00 3.050847e-01 0.000000e+00
 0.000000e+00 2.881356e-01 0.000000e+00
 0.000000e+00 2.711864e-01 0.000000e+00
 0.000000e+00 2.542373e-01 0.000000e+00
 0.000000e+00 2.372881e-01 0.000000e+00
 0.000000e+00 2.203390e-01 0.000000e+00
 0.000000e+00 2.033898e-01 0.000000e+00
 0.000000e+00 1.864407e-01 0.000000e+00
 0.000000e+00 1.694915e-01 0.000000e+00
 0.000000e+00 1.525424e-01 0.000000e+00
 0.000000e+00 1.355932e-01 0.000000e+00
 0.000000e+00 1.186441e-01 0.000000e+00
 0.000000e+00 1.016949e-01 0.000000e+00
 0.000000e+00 8.474576e-02 0.000000e+00
 0.000000e+00 6.779661e-02 0.000000e+00
 0.000000e+00 5.084746e-02 0.000000e+00
 0.000000e+00 3.389831e-02 0.000000e+00
 0.000000e+00 1.694915e-02 0.000000e+00
 5.005028e-01 4.998391e-01 0.000000e+00
 7.071661e-01 2.918712e-01 0.000000e+00
 7.058461e-01 7.075282e-01 0.000000e+00
 2.933884e-01 7.073367e-01 0.000000e+00
 2.938885e-01 2.941144e-01 0.000000e+00
 4.999703e-01 7.791089e-01 0.000000e+00
 5.001569e-01 2.194803e-01 0.000000e+00
 2.181991e-01 4.983680e-01 0.000000e+00
[...]
<PointData Scalars="press" Vectors="vel">
<DataArray Name="press" type="Float64" NumberOfComponents="1" format="ascii">
 2.545091e+06
 2.439928e+06
 -2.461182e+06
 -2.654580e+06
 2.551047e+06
 2.539280e+06
 2.545208e+06
 2.534481e+06
 2.538317e+06
 2.537587e+06
 2.529223e+06
 2.526499e+06
 2.523879e+06
 2.522686e+06
 2.518010e+06
 2.515185e+06
 2.511330e+06
 2.509240e+06
 2.498821e+06
 2.504288e+06
 2.495587e+06
 2.489365e+06
 2.487957e+06
 2.479376e+06
 2.470995e+06
 2.458017e+06
 2.433416e+06
 2.413402e+06
 2.393027e+06
 2.391473e+06
 2.407629e+06
 2.427699e+06
 2.444995e+06
 2.461986e+06
 2.475364e+06
 2.490668e+06
 2.492622e+06
 2.502973e+06
 2.511577e+06
 2.511304e+06
 2.514141e+06
 2.513437e+06
 2.513273e+06
 2.509710e+06
 2.507592e+06
 2.506657e+06
 2.505631e+06
 2.504175e+06
 2.502586e+06
 2.494776e+06
 2.498624e+06
 2.497602e+06
 2.497657e+06
 2.494353e+06
 2.493854e+06
 2.493857e+06
 2.499828e+06
 2.499739e+06
 2.493555e+06
 2.494423e+06
 2.474459e+06
 2.457240e+06
 2.418062e+06
 2.360923e+06
 2.281550e+06
 2.196822e+06
 2.110034e+06
 2.022390e+06
 1.934348e+06
 1.846435e+06
 1.758434e+06
 1.670925e+06
 1.583733e+06
 1.497650e+06
 1.412240e+06
 1.327470e+06
 1.242734e+06
 1.158340e+06
 1.073757e+06
 9.892296e+05
 9.043918e+05
 8.193169e+05
 7.340605e+05
 6.483913e+05
 5.626663e+05
 4.764526e+05
 3.902268e+05
 3.035645e+05
 2.169395e+05
 1.300083e+05
 4.302136e+04
 -4.389495e+04
 -1.309881e+05
 -2.179325e+05
 -3.048742e+05
 -3.917425e+05
 -4.787089e+05
 -5.655066e+05
 -6.521767e+05
 -7.392182e+05
 -8.258255e+05
 -9.126153e+05
 -9.991953e+05
 -1.085729e+06
 -1.172197e+06
 -1.258529e+06
 -1.344607e+06
 -1.430636e+06
 -1.516383e+06
 -1.601808e+06
 -1.687022e+06
 -1.771277e+06
 -1.854722e+06
 -1.936428e+06
 -2.015986e+06
 -2.092944e+06
 -2.166808e+06
 -2.236423e+06
 -2.304983e+06
 -2.365203e+06
 -2.455610e+06
 -2.470379e+06
 -2.467023e+06
 -2.482392e+06
 -2.482394e+06
 -2.486782e+06
 -2.499480e+06
 -2.506525e+06
 -2.512297e+06
 -2.516441e+06
 -2.522265e+06
 -2.526296e+06
 -2.533884e+06
 -2.527338e+06
 -2.526965e+06
 -2.527177e+06
 -2.528365e+06
 -2.531447e+06
 -2.533949e+06
 -2.535760e+06
 -2.541031e+06
 -2.544016e+06
 -2.549112e+06
 -2.551173e+06
 -2.553469e+06
 -2.554753e+06
 -2.556318e+06
 -2.554849e+06
 -2.559029e+06
 -2.560409e+06
 -2.562219e+06
 -2.566547e+06
 -2.569221e+06
 -2.568109e+06
 -2.568169e+06
 -2.572240e+06
 -2.565546e+06
 -2.563096e+06
 -2.562183e+06
 -2.558783e+06
 -2.560590e+06
 -2.558337e+06
 -2.553769e+06
 -2.561481e+06
 -2.555470e+06
 -2.556611e+06
 -2.556022e+06
 -2.556908e+06
 -2.556668e+06
 -2.560486e+06
 -2.563026e+06
 -2.566990e+06
 -2.567709e+06
 -2.576240e+06
 -2.590756e+06
 -2.599004e+06
 -2.622169e+06
 -2.639900e+06
 -2.503504e+06
 -2.382046e+06
 -2.285931e+06
 -2.198524e+06
 -2.115698e+06
 -2.035728e+06
 -1.955830e+06
 -1.874491e+06
 -1.794853e+06
 -1.714256e+06
 -1.635446e+06
 -1.555120e+06
 -1.473107e+06
 -1.387545e+06
 -1.296577e+06
 -1.196183e+06
 -1.092468e+06
 -9.901665e+05
 -8.916897e+05
 -7.996581e+05
 -7.114672e+05
 -6.270852e+05
 -5.441845e+05
 -4.626697e+05
 -3.810822e+05
 -2.982639e+05
 -2.128935e+05
 -1.243138e+05
 -3.164252e+04
 6.376800e+04
 1.585242e+05
 2.485913e+05
 3.336194e+05
 4.176117e+05
 5.016201e+05
 5.857962e+05
 6.702187e+05
 7.547014e+05
 8.392165e+05
 9.236447e+05
 1.007924e+06
 1.092099e+06
 1.175999e+06
 1.259812e+06
 1.343580e+06
 1.427324e+06
 1.511162e+06
 1.595163e+06
 1.679367e+06
 1.763975e+06
 1.849033e+06
 1.934808e+06
 2.021589e+06
 2.109559e+06
 2.199096e+06
 2.291140e+06
 2.384034e+06
 2.483510e+06
 -1.229304e+04
 1.056254e+06
 -1.064251e+06
 -1.054170e+06
 1.077608e+06
 -1.406527e+06
 1.423881e+06
 -9.121272e+03
 5.356650e+03
 1.671585e+06
 -1.675033e+06
 1.654880e+06
 -1.666951e+06
 7.076235e+05
 -3.598742e+05
 -3.623478e+05
 7.230040e+05
 -1.747074e+06
 7.245277e+05
 -7.004894e+05
 -1.753326e+06
 -7.201078e+05
 1.761828e+06
 1.736553e+06
 4.042953e+05
 -7.009775e+05
 3.155078e+05
 1.005079e+06
 -1.006065e+06
 -1.959792e+06
 1.808400e+05
 1.966604e+06
 -1.879460e+05
 -1.105364e+06
 4.946162e+05
 1.975027e+06
 -1.227874e+06
 1.213629e+06
 -1.985548e+06
 -1.984366e+06
 -1.252536e+06
 1.989134e+06
 1.232345e+06
 -5.328603e+05
 -5.264189e+05
 1.232510e+06
 4.879153e+05
 -2.034159e+06
 2.015710e+06
 2.024276e+06
 -2.046901e+06
 5.980784e+05
 2.027836e+06
 -2.037038e+06
 -3.076822e+05
 3.157572e+05
 1.496849e+06
 1.240798e+06
 -1.502290e+06
 -1.512414e+06
 1.128121e+06
 -1.135880e+06
 1.539493e+06
 -1.146643e+06
 3.892089e+04
 -3.985960e+05
 2.617539e+05
 -7.683754e+03
 9.824944e+05
 7.327065e+05
 1.342277e+06
 -7.570762e+05
 -1.322039e+06
 -2.125747e+06
 -2.119653e+06
 1.604384e+06
 1.620645e+06
 2.111819e+06
 2.110763e+06
 -1.618715e+06
 -1.642296e+06
 -7.572057e+05
 -6.953757e+04
 -5.535521e+05
 2.134674e+06
 -2.109301e+06
 5.727649e+05
 -3.594263e+05
 2.141118e+06
 -8.335386e+05
 -2.128145e+06
 8.418295e+05
 -1.357528e+06
 -1.497460e+06
 -1.639255e+06
 -3.390991e+05
 3.371250e+05
 1.636484e+06
 1.544991e+06
 3.508037e+05
 -3.607292e+05
 7.868137e+05
 8.689466e+05
 -1.059511e+06
 1.405704e+06
 -9.241739e+05
 2.166989e+06
 -2.177305e+06
 9.264461e+05
 -1.080988e+05
 2.565526e+05
 -5.832278e+05
 -8.632946e+05
 -7.302118e+05
 -1.304093e+06
 -2.245473e+05
 -8.717110e+05
 6.665590e+05
 2.199598e+06
 -2.196186e+06
 -2.149755e+04
 2.963255e+04
 -5.872019e+05
 -2.918581e+04
 2.099510e+04
 1.728031e+06
 -1.721728e+06
 1.261817e+06
 -1.748587e+06
 1.728386e+06
 1.050829e+06
 -1.741210e+06
 -1.383670e+06
 1.726238e+06
 -1.373058e+06
 1.355965e+06
 8.999402e+05
 1.202644e+06
 1.026084e+06
 -2.218743e+06
 5.582323e+05
 -5.323648e+05
 2.225610e+06
 4.934424e+05
 6.630645e+03
 -5.520559e+05
 1.928305e+05
 2.738452e+05
 2.242595e+06
 -2.217349e+06
 -2.257388e+06
 2.237465e+06
 -1.179293e+06
 1.720489e+05
 3.376207e+05
 3.045681e+05
 -2.813814e+05
 2.237077e+06
 -2.231242e+06
 1.740275e+06
 -1.740960e+06
 1.386105e+06
 -1.752079e+06
 2.241205e+06
 -1.363129e+06
 -2.230941e+06
 -2.232006e+06
 -1.389787e+06
 1.366982e+06
 2.236158e+06
 1.343766e+06
 -1.802520e+06
 1.003200e+06
 -1.011064e+06
 1.798953e+06
 -1.033470e+06
 -5.198969e+05
 -1.041342e+06
 1.831172e+06
 -8.591546e+05
 7.860517e+05
 -2.290408e+05
 4.401657e+05
 -1.044674e+06
 -2.238839e+06
 -2.251778e+06
 -1.869191e+06
 1.845096e+06
 -1.886539e+06
 1.848394e+06
 2.249533e+06
 2.256210e+06
 7.098651e+05
 -5.814064e+05
 5.488094e+05
 9.638630e+05
 1.501788e+06
 -4.567157e+05
 -7.768992e+05
 -1.322220e+06
 1.225987e+06
 -1.237989e+06
 1.296235e+06
 -1.238378e+06
 -6.139885e+05
 1.146216e+05
 1.054611e+06
 1.079577e+06
 -2.253357e+06
 2.265081e+06
 -1.126416e+06
 -1.909512e+06
 1.896181e+06
 1.908763e+06
 -1.919013e+06
 -7.795249e+05
 5.812204e+05
 1.471179e+06
 -1.479651e+06
 1.491724e+06
 -1.489646e+06
 -2.741940e+05
 7.976069e+05
 7.943138e+05
 -1.538823e+06
 1.952718e+06
 -1.953472e+06
 -5.466296e+05
 5.702954e+05
 1.558074e+06
 -3.372924e+05
 3.943772e+05
 1.325163e+06
 -2.683301e+05
 -1.544995e+06
 6.191359e+05
 4.777855e+05
 8.790007e+05
 -2.112595e+05
 -8.913277e+05
 -8.820186e+05
 5.293762e+04
 -2.265050e+06
 2.281271e+06
 -2.658314e+05
 2.714938e+05
 -1.542601e+06
 1.531190e+06
 -1.560768e+06
 1.881520e+06
 -1.967175e+06
 -6.960377e+04
 1.967043e+06
 7.217353e+04
 -1.675784e+06
 -1.269278e+05
 3.579749e+05
 -1.936239e+06
 9.028376e+05
 1.397686e+06
 -5.067073e+05
 9.296448e+05
 -7.556118e+05
 1.994543e+06
 -1.164252e+05
 1.705230e+06
 -1.327669e+06
 -2.287823e+06
 1.136187e+06
 1.238168e+06
 -1.118751e+06
 2.288253e+06
 -1.527779e+06
 2.127213e+05
 -3.515650e+05
 1.547258e+06
 1.586035e+06
 2.456589e+05
 7.258753e+05
 -2.291018e+06
 -7.176351e+05
 2.292898e+06
 -3.150836e+05
 5.876171e+05
 -1.899692e+06
 -1.905373e+06
 1.890571e+06
 1.276706e+06
 -1.208996e+06
 1.099111e+06
 1.809701e+06
 1.794172e+06
 -1.816663e+06
 -5.467226e+05
 -1.803888e+06
 -8.013939e+05
 1.957708e+06
 -1.888039e+06
 -8.709712e+05
 -1.588482e+06
 -1.956699e+05
 1.205406e+06
 1.026956e+06
 7.624146e+05
 -8.968211e+05
 2.325605e+06
 -2.316636e+06
 1.538252e+06
 1.554144e+06
 -2.300634e+06
 2.328850e+06
 -1.587275e+06
 -1.566153e+06
 1.394767e+05
 3.523171e+04
 -1.311726e+06
 1.899391e+05
 1.056594e+06
 -4.048792e+05
 -1.399637e+05
 7.462519e+05
 -7.133047e+05
 -2.302243e+06
 2.328635e+06
 1.436641e+06
 -8.368273e+05
 8.392246e+05
 2.488533e+05
 -2.431172e+05
 1.829908e+06
 -1.839635e+06
 6.205086e+05
 -5.432104e+05
 4.929405e+05
 -2.305294e+06
 -4.749277e+05
 2.308271e+06
 -1.753471e+05
 -1.860139e+04
 -1.760708e+06
 1.749662e+06
 -5.009783e+05
 5.146834e+05
 -1.384376e+06
 1.232322e+06
 -1.414792e+06
 -1.451062e+06
 1.404964e+06
 -4.145248e+05
 8.373811e+05
 -2.043817e+06
 2.034786e+06
 -2.046101e+06
 1.945896e+05
 2.044767e+06
 -5.621435e+05
 2.345133e+06
 -1.479347e+06
 2.345458e+06
 -2.042218e+06
 -1.996766e+06
 -1.923823e+06
 -2.074714e+06
 -2.299616e+06
 -2.331597e+06
 -1.015669e+06
 2.000891e+06
 2.053174e+06
 -9.482038e+05
 2.048757e+06
 -1.238435e+06
 -9.348664e+05
 6.785974e+05
 2.017416e+06
 1.530169e+06
 -1.307992e+06
 3.878411e+05
 -1.032725e+06
 9.967534e+05
 8.830640e+05
 -8.808353e+05
 -3.637298e+05
 -8.227799e+05
 -1.422450e+05
 1.464449e+05
 1.552859e+06
 1.931739e+06
 -2.038330e+06
 1.445487e+06
 3.816694e+05
 7.114764e+05
 -2.343257e+05
 -1.172479e+06
 9.647126e+05
 8.464881e+05
 4.968745e+05
 -1.052095e+06
 -1.186705e+06
 -1.721829e+05
 -1.059716e+06
 -5.366454e+05
 5.172102e+05
 7.216725e+05
 -2.069565e+06
 -2.317954e+06
 -1.137663e+05
 2.326617e+06
 1.245253e+05
 1.587980e+06
 -4.520407e+05
 1.148618e+06
 1.040398e+05
 3.716931e+05
 -1.309530e+06
 1.461948e+06
 -1.196351e+06
 -1.175720e+06
 1.797398e+06
 1.165648e+06
 -1.130826e+06
 -1.303345e+06
 1.293910e+06
 -1.703796e+06
 1.785742e+06
 -1.687908e+06
 1.218420e+06
 1.954920e+06
 -2.028614e+06
 1.051849e+06
 7.318906e+04
 1.934519e+05
 1.154696e+06
 -5.703703e+05
 5.380597e+05
 -1.510153e+06
 1.117693e+06
 -6.791876e+05
 5.571059e+05
 -1.564608e+06
 -9.609746e+05
 2.357938e+06
 9.701990e+05
 -2.338744e+06
 9.299760e+05
 -3.749275e+05
 2.369232e+06
 -2.333487e+06
 9.191169e+05
 -9.080620e+05
 -1.477606e+06
 7.489485e+05
 1.079125e+06
 1.587396e+06
 -7.126884e+05
 -2.076417e+06
 2.072316e+06
 -2.083405e+06
 2.086507e+06
 2.138742e+06
 1.480062e+05
 -2.135849e+06
 -1.352354e+05
 -1.041959e+06
 -1.800515e+05
 -6.783887e+05
 1.382720e+06
 8.378206e+05
 -2.191614e+05
 4.302800e+05
 -2.337397e+06
 -4.245385e+05
 2.363147e+06
 1.897269e+05
 -6.951670e+05
 4.329040e+05
 6.410795e+05
 1.728503e+06
 1.718080e+06
 -2.358720e+06
 2.375180e+06
 -1.759110e+06
 -1.715463e+06
 -2.335710e+06
 1.706681e+06
 2.380330e+06
 -1.736756e+06
 -1.730724e+06
 3.220275e+05
 -1.643780e+06
 -9.237877e+05
 2.369627e+06
 1.222176e+06
 -2.331555e+06
 -1.280131e+06
 1.413592e+06
 -1.586715e+06
 -7.100738e+05
 1.744624e+06
 -2.310646e+06
 -2.371712e+06
 2.368204e+06
 2.383551e+06
 1.793481e+05
 -6.488808e+05
 6.716293e+05
 -2.084283e+06
 2.100427e+06
 -8.457876e+05
 2.117761e+06
 -1.133610e+06
 1.182884e+05
 2.361830e+06
 -1.214000e+05
 1.673896e+06
 -2.337119e+06
 -9.309779e+05
 1.892507e+06
 8.776933e+05
 -1.356421e+06
 -1.384163e+06
 1.348767e+06
 -6.679965e+05
 -6.220481e+05
 -2.154238e+06
 5.580623e+05
 1.215271e+06
 -6.153056e+05
 -1.251426e+06
 -2.157638e+06
 2.152515e+06
 1.205244e+06
 1.467549e+05
 -8.427104e+05
 1.859770e+06
 -3.683870e+05
 -5.135723e+03
 1.084202e+06
 -3.962979e+05
 4.081293e+05
 1.886084e+06
 -1.902268e+06
 -1.219089e+06
 4.351603e+05
 -6.050062e+05
 7.096918e+05
 6.205481e+05
 -1.178383e+06
 -1.802952e+06
 -6.763989e+05
 5.068480e+05
 -1.377508e+06
 7.550126e+05
 2.139009e+06
 -2.141248e+06
 -1.827842e+05
 1.856903e+05
 3.423370e+04
 -7.768561e+05
 1.383281e+06
 -7.294552e+05
 -2.166473e+06
 -3.834575e+05
 3.921590e+05
 2.185143e+06
 -1.642455e+06
 1.508756e+06
 -1.503031e+06
 3.304960e+05
 1.639690e+06
 -1.530386e+06
 2.067919e+05
 -3.643158e+05
 4.624943e+05
 -1.894043e+06
 1.783359e+06
 -4.008227e+05
 9.300724e+05
 1.629299e+06
 1.572846e+06
 -1.631797e+06
 -1.580944e+06
 1.374024e+06
 1.519966e+06
 -1.648014e+06
 -1.592371e+06
 7.298554e+05
 1.465332e+05
 1.267712e+06
 -2.166910e+06
 2.077317e+06
 -2.357830e+06
 -1.268347e+06
 2.083792e+06
 -2.189565e+06
 -1.211304e+06
 2.377337e+06
 -1.695213e+06
 1.061078e+06
 1.638006e+06
 1.821964e+06
 2.117183e+06
 -1.365058e+06
 -4.809538e+05
 -1.923028e+06
 3.947392e+04
 -5.419871e+04
 1.885582e+06
 -8.843547e+05
 -1.909761e+06
 -1.906127e+06
 1.634734e+06
 1.168582e+06
 -1.839274e+06
 -3.725421e+05
 6.313484e+05
 4.058374e+05
 -4.210508e+05
 1.380184e+06
 -4.588742e+05
 -2.350903e+06
 2.387379e+06
 -5.771486e+05
 6.020652e+05
 -2.009048e+06
 6.485580e+05
 2.176078e+06
 -2.025830e+06
 -9.981473e+04
 2.180500e+06
 -7.163707e+05
 2.145154e+06
 -1.773180e+06
 8.901615e+05
 1.136815e+06
 1.651945e+06
 -1.537059e+05
 1.374739e+06
 -7.408001e+05
 -1.387257e+06
 1.340833e+06
 -1.385459e+06
 -1.603219e+06
 6.496475e+05
 1.133381e+05
 1.362548e+06
 -1.831118e+06
 8.601173e+05
 3.770374e+05
 1.709966e+06
 8.674522e+05
 1.014201e+06
 -1.205779e+06
 1.232402e+06
 1.097138e+06
 1.844486e+06
 -4.548768e+05
 -1.073564e+06
 -1.036185e+06
 -8.749350e+05
 -1.025890e+06
 -5.052936e+05
 -1.402325e+06
 -2.315540e+05
 1.203541e+06
 5.269760e+05
 -6.451231e+05
 3.584685e+05
 -1.096295e+04
 -2.362725e+06
 2.342842e+06
 -2.347094e+06
 -3.244916e+05
 2.386832e+06
 1.405063e+06
 5.775138e+04
 1.422226e+06
 -1.463554e+06
 -2.366119e+06
 -1.430379e+06
 1.388838e+06
 2.393752e+06
 3.738017e+05
 1.132436e+06
 -1.143600e+06
 -1.170284e+06
 2.706962e+05
 -7.217043e+05
 1.763367e+06
 -1.786039e+06
 -1.766183e+06
 1.753054e+06
 2.406031e+06
 -1.207937e+05
 2.398137e+06
 2.196442e+06
 -2.389938e+06
 -2.202359e+06
 -2.339005e+06
 2.201727e+06
 -2.175478e+06
 1.088935e+06
 5.190667e+05
 -2.355059e+05
 -6.877095e+05
 -1.187028e+06
 -1.354389e+05
 -2.147781e+06
 1.261075e+06
 1.408598e+06
 2.939151e+05
 3.594775e+05
 -1.271313e+06
 -5.506727e+05
 -1.284808e+06
 -1.028487e+06
 -8.991746e+05
 -5.017270e+03
 -7.941321e+05
 1.376044e+06
 1.519858e+06
 2.168577e+06
 5.988135e+05
 1.648061e+06
 -6.954479e+05
 1.359198e+06
 8.546328e+05
 1.206150e+06
 -1.806789e+05
 1.698299e+06
 -1.276212e+06
 1.784399e+05
 2.116865e+06
 -6.161961e+05
 4.292215e+05
 -6.772493e+05
 7.016776e+05
 1.477654e+06
 7.540123e+05
 2.400532e+06
 -2.379319e+06
 1.482685e+06
 -1.914841e+06
 9.859559e+05
 1.647554e+06
 1.912582e+06
 -1.678436e+06
 1.915194e+04
 -2.347970e+06
 1.902189e+06
 -1.933497e+06
 -1.664678e+06
 2.194050e+06
 2.402321e+06
 -1.498524e+06
 -2.193649e+06
 -2.188583e+06
 -1.089730e+06
 -1.526676e+06
 1.819871e+06
 2.186654e+06
 -2.545481e+04
 1.481451e+06
 -1.431782e+06
 9.377879e+05
 -1.014700e+05
 1.973825e+06
 1.897748e+06
 6.211391e+05
 1.908537e+06
 9.096160e+05
 -9.993232e+05
 -9.903015e+05
 -2.216619e+06
 -2.229580e+06
 2.223402e+06
 1.259462e+06
 -1.659370e+06
 2.220891e+06
 -1.831976e+06
 -1.776451e+06
 2.580134e+05
 4.303595e+05
 -1.299979e+06
 -1.370109e+05
 8.429622e+05
 7.748070e+05
 -6.002345e+05
 2.373499e+06
 1.800902e+06
 -1.821919e+06
 -1.812681e+06
 -2.372342e+06
 1.803806e+06
 6.252437e+05
 1.585939e+06
 -7.220934e+05
 -1.085433e+06
 -1.890079e+06
 -4.258043e+05
 1.073197e+06
 -1.029147e+06
 -3.900617e+05
 -1.893493e+06
 -8.845485e+05
 1.325737e+06
 1.681301e+06
 -2.092159e+06
 -5.856326e+05
 -2.563183e+05
 4.690934e+05
 -1.053234e+06
 -1.542003e+06
 -3.735522e+05
 -3.063366e+05
 -2.794574e+05
 1.625276e+06
 -2.350307e+05
 -4.649034e+05
 2.196507e+05
 6.395362e+05
 9.781134e+05
 -1.006189e+06
 -4.801432e+05
 -1.988561e+06
 -1.986862e+06
 1.975358e+06
 -2.168357e+06
 1.073174e+06
 1.933247e+06
 1.921476e+06
 -1.930383e+06
 -1.940000e+06
 -1.138106e+06
 -5.147307e+05
 7.097987e+05
 6.092972e+05
 -1.459964e+06
 2.046940e+06
 -2.083430e+06
 1.261324e+06
 -4.920929e+05
 2.102688e+06
 4.624726e+05
 -9.533615e+05
 2.771330e+05
 -2.826357e+05
 -1.631543e+06
 -1.899092e+06
 -1.912941e+06
 2.016104e+06
 -2.014264e+06
 5.591005e+04
 -2.170078e+06
 -5.537508e+04
 1.487416e+06
 1.570731e+06
 1.113216e+04
 -4.602359e+05
 1.053117e+06
 2.407518e+06
 -1.537524e+06
 1.524816e+06
 -2.377678e+06
 -1.072486e+06
 -8.152574e+05
 3.427933e+05
 -2.362739e+06
 2.389642e+06
 8.285374e+05
 -5.558211e+05
 1.675175e+06
 1.516784e+06
 -9.105658e+05
 -1.411031e+06
 1.858101e+06
 5.352186e+05
 1.024721e+06
 -8.847996e+05
 2.040091e+06
 -1.708766e+06
 3.445991e+05
 1.667607e+06
 -1.687196e+06
 1.680621e+06
 -1.345784e+06
 -7.742544e+04
 -1.669541e+06
 1.866542e+06
 -1.172737e+06
 1.394483e+06
 1.906151e+06
 -1.834099e+06
 1.155746e+06
 -7.960676e+05
 1.829817e+06
 -1.109241e+05
 1.044394e+06
 1.119564e+05
 -2.176212e+06
 -1.485238e+06
 -9.334325e+05
 -2.158025e+06
 4.304799e+05
 -1.179955e+06
 2.818431e+05
 1.158646e+05
 9.237244e+05
 -1.614863e+06
 9.679546e+05
 -1.771504e+06
 -3.601160e+05
 1.761735e+06
 -1.946234e+05
 3.664912e+05
 -5.988868e+05
 6.098103e+05
 2.242182e+06
 -2.247179e+06
 3.980327e+05
 -2.835916e+05
 1.287389e+06
 -1.169116e+06
 1.754756e+06
 -9.109557e+05
 -1.760564e+06
 1.277366e+06
 -1.771739e+06
 8.520498e+05
 -1.179055e+06
 -9.303264e+04
 -3.031381e+05
 1.105509e+05
 -1.127861e+05
 1.791319e+06
 1.467188e+06
 -1.576603e+06
 1.323655e+05
 -1.493886e+06
 6.165020e+05
 -1.962878e+06
 1.882723e+06
 -2.057397e+05
 2.110037e+05
 9.888320e+05
 1.965535e+06
 6.911733e+05
 1.521906e+06
 1.668465e+06
 2.019491e+06
 1.292646e+06
 -1.999126e+06
 -1.628652e+06
 -4.499257e+05
 1.722200e+06
 2.387915e+06
 -1.051518e+06
 -2.379481e+06
 2.296694e+04
 -1.348070e+06
 8.795760e+05
 -1.268778e+06
 -1.171051e+04
 -1.290937e+06
 -1.848646e+06
 1.256711e+06
 -4.878170e+05
 -1.003578e+06
 -1.175253e+04
 9.737948e+05
 -1.452871e+06
 3.407338e+05
 7.779894e+05
 1.346557e+06
 -4.310410e+05
 2.614981e+05
 -2.388290e+06
 2.418251e+06
 -3.069719e+05
 -1.803129e+06
 1.322919e+06
 -2.208433e+06
 -1.410034e+06
 1.046255e+05
 9.030598e+05
 -2.380224e+06
 1.063400e+06
 -1.397756e+06
 -1.056091e+06
 1.388726e+06
 2.399964e+06
 2.224918e+06
 -9.349627e+05
 1.178648e+06
 1.529557e+06
 3.568369e+05
 -1.565563e+06
 -1.542851e+06
 -7.450237e+05
 7.660010e+05
 2.019626e+06
 6.824354e+05
 -3.477772e+05
 -2.016059e+06
 -2.019528e+06
 2.005581e+06
 -6.523521e+05
 1.674438e+06
 -8.480713e+04
 2.101774e+06
 9.702686e+04
 3.891666e+05
 2.094877e+06
 2.264901e+06
 8.541575e+05
 2.447409e+05
 -8.427277e+05
 2.248126e+05
 1.205370e+06
 -1.863658e+06
 9.706608e+05
 -2.056958e+06
 -2.392609e+05
 2.539992e+05
 -5.130522e+05
 1.634744e+06
 -1.232037e+06
 2.235589e+06
 1.551689e+06
 1.054144e+06
 -1.035737e+06
 2.227039e+06
 2.208730e+06
 1.639463e+06
 2.223084e+06
 -2.115511e+06
 -2.119427e+06
 -2.082781e+06
 -1.909628e+06
 -7.588078e+04
 2.082939e+06
 8.115065e+04
 1.164595e+06
 -7.126751e+04
 -1.436581e+06
 1.965143e+06
 1.993011e+06
 4.848851e+05
 1.607129e+06
 -2.234074e+06
 7.044818e+05
 -1.630518e+06
 8.457491e+05
 -8.293297e+05
 2.368352e+06
 2.476582e+05
 2.033751e+06
 1.073414e+06
 -2.383220e+06
 -2.258957e+05
 -2.097297e+05
 -1.898971e+05
 -2.123534e+05
 9.513838e+05
 -1.279140e+06
 -6.477413e+05
 -2.990594e+05
 5.088232e+05
 1.280022e+06
 -1.401295e+06
 -2.081653e+06
 7.730901e+04
 -2.075029e+06
 -9.420751e+05
 9.535471e+05
 2.234905e+05
 -3.504711e+04
 2.003420e+06
 -8.034477e+05
 5.168352e+05
 7.488246e+05
 -2.136131e+06
 -8.081116e+05
 6.798167e+05
 -6.450797e+05
 9.893197e+05
 -1.249974e+06
 -2.220468e+06
 -1.355353e+06
 2.220880e+06
 1.294484e+06
 1.101920e+06
 1.111249e+06
 -1.147514e+06
 -2.137162e+06
 2.129867e+06
 -1.460763e+06
 -1.291757e+06
 1.290402e+06
 1.173598e+06
 2.434330e+06
 6.069027e+05
 -8.040521e+05
 -2.381507e+06
 8.264725e+05
 2.492845e+05
 -5.377726e+05
 1.707440e+06
 -1.400667e+06
 -1.631281e+06
 -1.024490e+06
 -3.519647e+05
 -9.119339e+05
 1.463679e+06
 8.986769e+05
 -1.307825e+06
 7.149618e+05
 -2.137724e+06
 -7.306136e+05
 -3.111655e+05
 -1.463615e+06
 5.906594e+05
 -6.039319e+05
 -2.031496e+06
 1.143344e+06
 -1.665530e+06
 -2.404026e+06
 1.624133e+06
 -2.376580e+06
 2.437885e+06
 1.612407e+06
 2.438741e+06
 -1.632101e+06
 -2.350334e+05
 -1.660707e+06