<?xml version="1.0"?>
<VTKFile type="UnstructuredGrid" version="0.1">
<UnstructuredGrid>
<FieldData>
<DataArray Name="TIME" type="Float64" format="ascii" NumberOfTuples="1">
0.000000e+00
</DataArray>
</FieldData>
<FieldData>
<DataArray Name="CYCLE" type="Int32" format="ascii" NumberOfTuples="1">
0
</DataArray>
</FieldData>
<Piece NumberOfPoints="144" NumberOfCells="122">
<Points>
<DataArray NumberOfComponents="3" type="Float64" format="ascii">
-2.500000e+00 1.200000e+00 0.000000e+00
-1.636364e+00 1.200000e+00 0.000000e+00
-7.727273e-01 1.200000e+00 0.000000e+00
9.090909e-02 1.200000e+00 0.000000e+00
9.545454e-01 1.200000e+00 0.000000e+00
1.818182e+00 1.200000e+00 0.000000e+00
2.681818e+00 1.200000e+00 0.000000e+00
3.545455e+00 1.200000e+00 0.000000e+00
4.409091e+00 1.200000e+00 0.000000e+00
5.272727e+00 1.200000e+00 0.000000e+00
6.136364e+00 1.200000e+00 0.000000e+00
7.000000e+00 1.200000e+00 0.000000e+00
-2.500000e+00 2.066667e+00 0.000000e+00
-1.636364e+00 2.066667e+00 0.000000e+00
-7.727273e-01 2.066667e+00 0.000000e+00
9.090909e-02 2.066667e+00 0.000000e+00
9.545454e-01 2.066667e+00 0.000000e+00
1.818182e+00 2.066667e+00 0.000000e+00
2.681818e+00 2.066667e+00 0.000000e+00
3.545455e+00 2.066667e+00 0.000000e+00
4.409091e+00 2.066667e+00 0.000000e+00
5.272727e+00 2.066667e+00 0.000000e+00
6.136364e+00 2.066667e+00 0.000000e+00
7.000000e+00 2.066667e+00 0.000000e+00
-2.500000e+00 2.933333e+00 0.000000e+00
-1.636364e+00 2.933333e+00 0.000000e+00
-7.727273e-01 2.933333e+00 0.000000e+00
9.090909e-02 2.933333e+00 0.000000e+00
9.545454e-01 2.933333e+00 0.000000e+00
1.818182e+00 2.933333e+00 0.000000e+00
2.681818e+00 2.933333e+00 0.000000e+00
3.545455e+00 2.933333e+00 0.000000e+00
4.409091e+00 2.933333e+00 0.000000e+00
5.272727e+00 2.933333e+00 0.000000e+00
6.136364e+00 2.933333e+00 0.000000e+00
7.000000e+00 2.933333e+00 0.000000e+00
-2.500000e+00 3.800000e+00 0.000000e+00
-1.636364e+00 3.800000e+00 0.000000e+00
-7.727273e-01 3.800000e+00 0.000000e+00
9.090909e-02 3.800000e+00 0.000000e+00
9.545454e-01 3.800000e+00 0.000000e+00
1.818182e+00 3.800000e+00 0.000000e+00
2.681818e+00 3.800000e+00 0.000000e+00
3.545455e+00 3.800000e+00 0.000000e+00
4.409091e+00 3.800000e+00 0.000000e+00
5.272727e+00 3.800000e+00 0.000000e+00
6.136364e+00 3.800000e+00 0.000000e+00
7.000000e+00 3.800000e+00 0.000000e+00
-2.500000e+00 1.200000e+00 2.000000e+00
-1.636364e+00 1.200000e+00 2.000000e+00
-7.727273e-01 1.200000e+00 2.000000e+00
9.090909e-02 1.200000e+00 2.000000e+00
9.545454e-01 1.200000e+00 2.000000e+00
1.818182e+00 1.200000e+00 2.000000e+00
2.681818e+00 1.200000e+00 2.000000e+00
3.545455e+00 1.200000e+00 2.000000e+00
4.409091e+00 1.200000e+00 2.000000e+00
5.272727e+00 1.200000e+00 2.000000e+00
6.136364e+00 1.200000e+00 2.000000e+00
7.000000e+00 1.200000e+00 2.000000e+00
-2.500000e+00 2.066667e+00 2.000000e+00
-1.636364e+00 2.066667e+00 2.000000e+00
-7.727273e-01 2.066667e+00 2.000000e+00
9.090909e-02 2.066667e+00 2.000000e+00
9.545454e-01 2.066667e+00 2.000000e+00
1.818182e+00 2.066667e+00 2.000000e+00
2.681818e+00 2.066667e+00 2.000000e+00
3.545455e+00 2.066667e+00 2.000000e+00
4.409091e+00 2.066667e+00 2.000000e+00
5.272727e+00 2.066667e+00 2.000000e+00
6.136364e+00 2.066667e+00 2.000000e+00
7.000000e+00 2.066667e+00 2.000000e+00
-2.500000e+00 2.933333e+00 2.000000e+00
-1.636364e+00 2.933333e+00 2.000000e+00
-7.727273e-01 2.933333e+00 2.000000e+00
9.090909e-02 2.933333e+00 2.000000e+00
9.545454e-01 2.933333e+00 2.000000e+00
1.818182e+00 2.933333e+00 2.000000e+00
2.681818e+00 2.933333e+00 2.000000e+00
3.545455e+00 2.933333e+00 2.000000e+00
4.409091e+00 2.933333e+00 2.000000e+00
5.272727e+00 2.933333e+00 2.000000e+00
6.136364e+00 2.933333e+00 2.000000e+00
7.000000e+00 2.933333e+00 2.000000e+00
-2.500000e+00 3.800000e+00 2.000000e+00
-1.636364e+00 3.800000e+00 2.000000e+00
-7.727273e-01 3.800000e+00 2.000000e+00
9.090909e-02 3.800000e+00 2.000000e+00
9.545454e-01 3.800000e+00 2.000000e+00
1.818182e+00 3.800000e+00 2.000000e+00
2.681818e+00 3.800000e+00 2.000000e+00
3.545455e+00 3.800000e+00 2.000000e+00
4.409091e+00 3.800000e+00 2.000000e+00
5.272727e+00 3.800000e+00 2.000000e+00
6.136364e+00 3.800000e+00 2.000000e+00
7.000000e+00 3.800000e+00 2.000000e+00
-2.500000e+00 1.200000e+00 4.000000e+00
-1.636364e+00 1.200000e+00 4.000000e+00
-7.727273e-01 1.200000e+00 4.000000e+00
9.090909e-02 1.200000e+00 4.000000e+00
9.545454e-01 1.200000e+00 4.000000e+00
1.818182e+00 1.200000e+00 4.000000e+00
2.681818e+00 1.200000e+00 4.000000e+00
3.545455e+00 1.200000e+00 4.000000e+00
4.409091e+00 1.200000e+00 4.000000e+00
5.272727e+00 1.200000e+00 4.000000e+00
6.136364e+00 1.200000e+00 4.000000e+00
7.000000e+00 1.200000e+00 4.000000e+00
-2.500000e+00 2.066667e+00 4.000000e+00
-1.636364e+00 2.066667e+00 4.000000e+00
-7.727273e-01 2.066667e+00 4.000000e+00
9.090909e-02 2.066667e+00 4.000000e+00
9.545454e-01 2.066667e+00 4.000000e+00
1.818182e+00 2.066667e+00 4.000000e+00
2.681818e+00 2.066667e+00 4.000000e+00
3.545455e+00 2.066667e+00 4.000000e+00
4.409091e+00 2.066667e+00 4.000000e+00
5.272727e+00 2.066667e+00 4.000000e+00
6.136364e+00 2.066667e+00 4.000000e+00
7.000000e+00 2.066667e+00 4.000000e+00
-2.500000e+00 2.933333e+00 4.000000e+00
-1.636364e+00 2.933333e+00 4.000000e+00
-7.727273e-01 2.933333e+00 4.000000e+00
9.090909e-02 2.933333e+00 4.000000e+00
9.545454e-01 2.933333e+00 4.000000e+00
1.818182e+00 2.933333e+00 4.000000e+00
2.681818e+00 2.933333e+00 4.000000e+00
3.545455e+00 2.933333e+00 4.000000e+00
4.409091e+00 2.933333e+00 4.000000e+00
5.272727e+00 2.933333e+00 4.000000e+00
6.136364e+00 2.933333e+00 4.000000e+00
7.000000e+00 2.933333e+00 4.000000e+00
-2.500000e+00 3.800000e+00 4.000000e+00
-1.636364e+00 3.800000e+00 4.000000e+00
-7.727273e-01 3.800000e+00 4.000000e+00
9.090909e-02 3.800000e+00 4.000000e+00
9.545454e-01 3.800000e+00 4.000000e+00
1.818182e+00 3.800000e+00 4.000000e+00
2.681818e+00 3.800000e+00 4.000000e+00
3.545455e+00 3.800000e+00 4.000000e+00
4.409091e+00 3.800000e+00 4.000000e+00
5.272727e+00 3.800000e+00 4.000000e+00
6.136364e+00 3.800000e+00 4.000000e+00
7.000000e+00 3.800000e+00 4.000000e+00
</DataArray>
</Points>
<Cells>
<DataArray Name="connectivity" type="Int32" format="ascii">
48 0 12 60
60 12 24 72
72 24 36 84
96 48 60 108
108 60 72 120
120 72 84 132
59 11 23 71
71 23 35 83
83 35 47 95
107 59 71 119
119 71 83 131
131 83 95 143
48 0 1 49
49 1 2 50
50 2 3 51
51 3 4 52
52 4 5 53
53 5 6 54
54 6 7 55
55 7 8 56
56 8 9 57
57 9 10 58
58 10 11 59
96 48 49 97
97 49 50 98
98 50 51 99
99 51 52 100
100 52 53 101
101 53 54 102
102 54 55 103
103 55 56 104
104 56 57 105
105 57 58 106
106 58 59 107
84 36 37 85
85 37 38 86
86 38 39 87
87 39 40 88
88 40 41 89
89 41 42 90
90 42 43 91
91 43 44 92
92 44 45 93
93 45 46 94
94 46 47 95
132 84 85 133
133 85 86 134
134 86 87 135
135 87 88 136
136 88 89 137
137 89 90 138
138 90 91 139
139 91 92 140
140 92 93 141
141 93 94 142
142 94 95 143
0 1 13 12
1 2 14 13
2 3 15 14
3 4 16 15
4 5 17 16
5 6 18 17
6 7 19 18
7 8 20 19
8 9 21 20
9 10 22 21
10 11 23 22
12 13 25 24
13 14 26 25
14 15 27 26
15 16 28 27
16 17 29 28
17 18 30 29
18 19 31 30
19 20 32 31
20 21 33 32
21 22 34 33
22 23 35 34
24 25 37 36
25 26 38 37
26 27 39 38
27 28 40 39
28 29 41 40
29 30 42 41
30 31 43 42
31 32 44 43
32 33 45 44
33 34 46 45
34 35 47 46
96 97 109 108
97 98 110 109
98 99 111 110
99 100 112 111
100 101 113 112
101 102 114 113
102 103 115 114
103 104 116 115
104 105 117 116
105 106 118 117
106 107 119 118
108 109 121 120
109 110 122 121
110 111 123 122
111 112 124 123
112 113 125 124
113 114 126 125
114 115 127 126
115 116 128 127
116 117 129 128
117 118 130 129
118 119 131 130
120 121 133 132
121 122 134 133
122 123 135 134
123 124 136 135
124 125 137 136
125 126 138 137
126 127 139 138
127 128 140 139
128 129 141 140
129 130 142 141
130 131 143 142
</DataArray>
<DataArray Name="offsets" type="Int32" format="ascii">
4
8
12
16
20
24
28
32
36
40
44
48
52
56
60
64
68
72
76
80
84
88
92
96
100
104
108
112
116
120
124
128
132
136
140
144
148
152
156
160
164
168
172
176
180
184
188
192
196
200
204
208
212
216
220
224
228
232
236
240
244
248
252
256
260
264
268
272
276
280
284
288
292
296
300
304
308
312
316
320
324
328
332
336
340
344
348
352
356
360
364
368
372
376
380
384
388
392
396
400
404
408
412
416
420
424
428
432
436
440
444
448
452
456
460
464
468
472
476
480
484
488
</DataArray>
<DataArray Name="types" type="UInt8" format="ascii">
9
9
9
9
9
9
9
9
9
9
9
9
9
9
9
9
9
9
9
9
9
9
9
9
9
9
9
9
9
9
9
9
9
9
9
9
9
9
9
9
9
9
9
9
9
9
9
9
9
9
9
9
9
9
9
9
9
9
9
9
9
9
9
9
9
9
9
9
9
9
9
9
9
9
9
9
9
9
9
9
9
9
9
9
9
9
9
9
9
9
9
9
9
9
9
9
9
9
9
9
9
9
9
9
9
9
9
9
9
9
9
9
9
9
9
9
9
9
9
9
9
9
</DataArray>
</Cells>
<CellData>
<DataArray Name="data_s" type="Float64" NumberOfComponents="1" format="ascii">
-2.500000e+00
-2.500000e+00
-2.500000e+00
-2.500000e+00
-2.500000e+00
-2.500000e+00
7.000000e+00
7.000000e+00
7.000000e+00
7.000000e+00
7.000000e+00
7.000000e+00
-2.068182e+00
-1.204545e+00
-3.409091e-01
5.227273e-01
1.386364e+00
2.250000e+00
3.113636e+00
3.977273e+00
4.840909e+00
5.704545e+00
6.568182e+00
-2.068182e+00
-1.204545e+00
-3.409091e-01
5.227273e-01
1.386364e+00
2.250000e+00
3.113636e+00
3.977273e+00
4.840909e+00
5.704545e+00
6.568182e+00
-2.068182e+00
-1.204545e+00
-3.409091e-01
5.227273e-01
1.386364e+00
2.250000e+00
3.113636e+00
3.977273e+00
4.840909e+00
5.704545e+00
6.568182e+00
-2.068182e+00
-1.204545e+00
-3.409091e-01
5.227273e-01
1.386364e+00
2.250000e+00
3.113636e+00
3.977273e+00
4.840909e+00
5.704545e+00
6.568182e+00
-2.068182e+00
-1.204545e+00
-3.409091e-01
5.227273e-01
1.386364e+00
2.250000e+00
3.113636e+00
3.977273e+00
4.840909e+00
5.704545e+00
6.568182e+00
-2.068182e+00
-1.204545e+00
-3.409091e-01
5.227273e-01
1.386364e+00
2.250000e+00
3.113636e+00
3.977273e+00
4.840909e+00
5.704545e+00
6.568182e+00
-2.068182e+00
-1.204545e+00
-3.409091e-01
5.227273e-01
1.386364e+00
2.250000e+00
3.113636e+00
3.977273e+00
4.840909e+00
5.704545e+00
6.568182e+00
-2.068182e+00
-1.204545e+00
-3.409091e-01
5.227273e-01
1.386364e+00
2.250000e+00
3.113636e+00
3.977273e+00
4.840909e+00
5.704545e+00
6.568182e+00
-2.068182e+00
-1.204545e+00
-3.409091e-01
5.227273e-01
1.386364e+00
2.250000e+00
3.113636e+00
3.977273e+00
4.840909e+00
5.704545e+00
6.568182e+00
-2.068182e+00
-1.204545e+00
-3.409091e-01
5.227273e-01
1.386364e+00
2.250000e+00
3.113636e+00
3.977273e+00
4.840909e+00
5.704545e+00
6.568182e+00
</DataArray>
<DataArray Name="data_t" type="Float64" NumberOfComponents="9" format="ascii">
-2.750000e+01 -5.250000e+01 -7.750000e+01 -3.000000e+01 -5.500000e+01 -8.000000e+01 -3.250000e+01 -5.750000e+01 -8.250000e+01
-2.750000e+01 -5.250000e+01 -7.750000e+01 -3.000000e+01 -5.500000e+01 -8.000000e+01 -3.250000e+01 -5.750000e+01 -8.250000e+01
-2.750000e+01 -5.250000e+01 -7.750000e+01 -3.000000e+01 -5.500000e+01 -8.000000e+01 -3.250000e+01 -5.750000e+01 -8.250000e+01
-2.750000e+01 -5.250000e+01 -7.750000e+01 -3.000000e+01 -5.500000e+01 -8.000000e+01 -3.250000e+01 -5.750000e+01 -8.250000e+01
-2.750000e+01 -5.250000e+01 -7.750000e+01 -3.000000e+01 -5.500000e+01 -8.000000e+01 -3.250000e+01 -5.750000e+01 -8.250000e+01
-2.750000e+01 -5.250000e+01 -7.750000e+01 -3.000000e+01 -5.500000e+01 -8.000000e+01 -3.250000e+01 -5.750000e+01 -8.250000e+01
7.700000e+01 1.470000e+02 2.170000e+02 8.400000e+01 1.540000e+02 2.240000e+02 9.100000e+01 1.610000e+02 2.310000e+02
7.700000e+01 1.470000e+02 2.170000e+02 8.400000e+01 1.540000e+02 2.240000e+02 9.100000e+01 1.610000e+02 2.310000e+02
7.700000e+01 1.470000e+02 2.170000e+02 8.400000e+01 1.540000e+02 2.240000e+02 9.100000e+01 1.610000e+02 2.310000e+02
7.700000e+01 1.470000e+02 2.170000e+02 8.400000e+01 1.540000e+02 2.240000e+02 9.100000e+01 1.610000e+02 2.310000e+02
7.700000e+01 1.470000e+02 2.170000e+02 8.400000e+01 1.540000e+02 2.240000e+02 9.100000e+01 1.610000e+02 2.310000e+02
7.700000e+01 1.470000e+02 2.170000e+02 8.400000e+01 1.540000e+02 2.240000e+02 9.100000e+01 1.610000e+02 2.310000e+02
-2.275000e+01 -4.343182e+01 -6.411364e+01 -2.481818e+01 -4.550000e+01 -6.618182e+01 -2.688636e+01 -4.756818e+01 -6.825000e+01
-1.325000e+01 -2.529545e+01 -3.734091e+01 -1.445455e+01 -2.650000e+01 -3.854546e+01 -1.565909e+01 -2.770455e+01 -3.975000e+01
-3.750000e+00 -7.159091e+00 -1.056818e+01 -4.090909e+00 -7.500000e+00 -1.090909e+01 -4.431818e+00 -7.840909e+00 -1.125000e+01
5.750000e+00 1.097727e+01 1.620455e+01 6.272727e+00 1.150000e+01 1.672727e+01 6.795455e+00 1.202273e+01 1.725000e+01
1.525000e+01 2.911364e+01 4.297727e+01 1.663636e+01 3.050000e+01 4.436364e+01 1.802273e+01 3.188636e+01 4.575000e+01
2.475000e+01 4.725000e+01 6.975000e+01 2.700000e+01 4.950000e+01 7.200000e+01 2.925000e+01 5.175000e+01 7.425000e+01
3.425000e+01 6.538636e+01 9.652273e+01 3.736364e+01 6.850000e+01 9.963636e+01 4.047727e+01 7.161364e+01 1.027500e+02
4.375000e+01 8.352273e+01 1.232955e+02 4.772727e+01 8.750000e+01 1.272727e+02 5.170454e+01 9.147727e+01 1.312500e+02
5.325000e+01 1.016591e+02 1.500682e+02 5.809091e+01 1.065000e+02 1.549091e+02 6.293182e+01 1.113409e+02 1.597500e+02
6.275000e+01 1.197955e+02 1.768409e+02 6.845454e+01 1.255000e+02 1.825455e+02 7.415909e+01 1.312045e+02 1.882500e+02
7.225000e+01 1.379318e+02 2.036136e+02 7.881818e+01 1.445000e+02 2.101818e+02 8.538636e+01 1.510682e+02 2.167500e+02
-2.275000e+01 -4.343182e+01 -6.411364e+01 -2.481818e+01 -4.550000e+01 -6.618182e+01 -2.688636e+01 -4.756818e+01 -6.825000e+01
-1.325000e+01 -2.529545e+01 -3.734091e+01 -1.445455e+01 -2.650000e+01 -3.854546e+01 -1.565909e+01 -2.770455e+01 -3.975000e+01
-3.750000e+00 -7.159091e+00 -1.056818e+01 -4.090909e+00 -7.500000e+00 -1.090909e+01 -4.431818e+00 -7.840909e+00 -1.125000e+01
5.750000e+00 1.097727e+01 1.620455e+01 6.272727e+00 1.150000e+01 1.672727e+01 6.795455e+00 1.202273e+01 1.725000e+01
1.525000e+01 2.911364e+01 4.297727e+01 1.663636e+01 3.050000e+01 4.436364e+01 1.802273e+01 3.188636e+01 4.575000e+01
2.475000e+01 4.725000e+01 6.975000e+01 2.700000e+01 4.950000e+01 7.200000e+01 2.925000e+01 5.175000e+01 7.425000e+01
3.425000e+01 6.538636e+01 9.652273e+01 3.736364e+01 6.850000e+01 9.963636e+01 4.047727e+01 7.161364e+01 1.027500e+02
4.375000e+01 8.352273e+01 1.232955e+02 4.772727e+01 8.750000e+01 1.272727e+02 5.170454e+01 9.147727e+01 1.312500e+02
5.325000e+01 1.016591e+02 1.500682e+02 5.809091e+01 1.065000e+02 1.549091e+02 6.293182e+01 1.113409e+02 1.597500e+02
6.275000e+01 1.197955e+02 1.768409e+02 6.845454e+01 1.255000e+02 1.825455e+02 7.415909e+01 1.312045e+02 1.882500e+02
7.225000e+01 1.379318e+02 2.036136e+02 7.881818e+01 1.445000e+02 2.101818e+02 8.538636e+01 1.510682e+02 2.167500e+02
-2.275000e+01 -4.343182e+01 -6.411364e+01 -2.481818e+01 -4.550000e+01 -6.618182e+01 -2.688636e+01 -4.756818e+01 -6.825000e+01
-1.325000e+01 -2.529545e+01 -3.734091e+01 -1.445455e+01 -2.650000e+01 -3.854546e+01 -1.565909e+01 -2.770455e+01 -3.975000e+01
-3.750000e+00 -7.159091e+00 -1.056818e+01 -4.090909e+00 -7.500000e+00 -1.090909e+01 -4.431818e+00 -7.840909e+00 -1.125000e+01
5.750000e+00 1.097727e+01 1.620455e+01 6.272727e+00 1.150000e+01 1.672727e+01 6.795455e+00 1.202273e+01 1.725000e+01
1.525000e+01 2.911364e+01 4.297727e+01 1.663636e+01 3.050000e+01 4.436364e+01 1.802273e+01 3.188636e+01 4.575000e+01
2.475000e+01 4.725000e+01 6.975000e+01 2.700000e+01 4.950000e+01 7.200000e+01 2.925000e+01 5.175000e+01 7.425000e+01
3.425000e+01 6.538636e+01 9.652273e+01 3.736364e+01 6.850000e+01 9.963636e+01 4.047727e+01 7.161364e+01 1.027500e+02
4.375000e+01 8.352273e+01 1.232955e+02 4.772727e+01 8.750000e+01 1.272727e+02 5.170454e+01 9.147727e+01 1.312500e+02
5.325000e+01 1.016591e+02 1.500682e+02 5.809091e+01 1.065000e+02 1.549091e+02 6.293182e+01 1.113409e+02 1.597500e+02
6.275000e+01 1.197955e+02 1.768409e+02 6.845454e+01 1.255000e+02 1.825455e+02 7.415909e+01 1.312045e+02 1.882500e+02
7.225000e+01 1.379318e+02 2.036136e+02 7.881818e+01 1.445000e+02 2.101818e+02 8.538636e+01 1.510682e+02 2.167500e+02
-2.275000e+01 -4.343182e+01 -6.411364e+01 -2.481818e+01 -4.550000e+01 -6.618182e+01 -2.688636e+01 -4.756818e+01 -6.825000e+01
-1.325000e+01 -2.529545e+01 -3.734091e+01 -1.445455e+01 -2.650000e+01 -3.854546e+01 -1.565909e+01 -2.770455e+01 -3.975000e+01
-3.750000e+00 -7.159091e+00 -1.056818e+01 -4.090909e+00 -7.500000e+00 -1.090909e+01 -4.431818e+00 -7.840909e+00 -1.125000e+01
5.750000e+00 1.097727e+01 1.620455e+01 6.272727e+00 1.150000e+01 1.672727e+01 6.795455e+00 1.202273e+01 1.725000e+01
1.525000e+01 2.911364e+01 4.297727e+01 1.663636e+01 3.050000e+01 4.436364e+01 1.802273e+01 3.188636e+01 4.575000e+01
2.475000e+01 4.725000e+01 6.975000e+01 2.700000e+01 4.950000e+01 7.200000e+01 2.925000e+01 5.175000e+01 7.425000e+01
3.425000e+01 6.538636e+01 9.652273e+01 3.736364e+01 6.850000e+01 9.963636e+01 4.047727e+01 7.161364e+01 1.027500e+02
4.375000e+01 8.352273e+01 1.232955e+02 4.772727e+01 8.750000e+01 1.272727e+02 5.170454e+01 9.147727e+01 1.312500e+02
5.325000e+01 1.016591e+02 1.500682e+02 5.809091e+01 1.065000e+02 1.549091e+02 6.293182e+01 1.113409e+02 1.597500e+02
6.275000e+01 1.197955e+02 1.768409e+02 6.845454e+01 1.255000e+02 1.825455e+02 7.415909e+01 1.312045e+02 1.882500e+02
7.225000e+01 1.379318e+02 2.036136e+02 7.881818e+01 1.445000e+02 2.101818e+02 8.538636e+01 1.510682e+02 2.167500e+02
-2.275000e+01 -4.343182e+01 -6.411364e+01 -2.481818e+01 -4.550000e+01 -6.618182e+01 -2.688636e+01 -4.756818e+01 -6.825000e+01
-1.325000e+01 -2.529545e+01 -3.734091e+01 -1.445455e+01 -2.650000e+01 -3.854546e+01 -1.565909e+01 -2.770455e+01 -3.975000e+01
-3.750000e+00 -7.159091e+00 -1.056818e+01 -4.090909e+00 -7.500000e+00 -1.090909e+01 -4.431818e+00 -7.840909e+00 -1.125000e+01
5.750000e+00 1.097727e+01 1.620455e+01 6.272727e+00 1.150000e+01 1.672727e+01 6.795455e+00 1.202273e+01 1.725000e+01
1.525000e+01 2.911364e+01 4.297727e+01 1.663636e+01 3.050000e+01 4.436364e+01 1.802273e+01 3.188636e+01 4.575000e+01
2.475000e+01 4.725000e+01 6.975000e+01 2.700000e+01 4.950000e+01 7.200000e+01 2.925000e+01 5.175000e+01 7.425000e+01
3.425000e+01 6.538636e+01 9.652273e+01 3.736364e+01 6.850000e+01 9.963636e+01 4.047727e+01 7.161364e+01 1.027500e+02
4.375000e+01 8.352273e+01 1.232955e+02 4.772727e+01 8.750000e+01 1.272727e+02 5.170454e+01 9.147727e+01 1.312500e+02
5.325000e+01 1.016591e+02 1.500682e+02 5.809091e+01 1.065000e+02 1.549091e+02 6.293182e+01 1.113409e+02 1.597500e+02
6.275000e+01 1.197955e+02 1.768409e+02 6.845454e+01 1.255000e+02 1.825455e+02 7.415909e+01 1.312045e+02 1.882500e+02
7.225000e+01 1.379318e+02 2.036136e+02 7.881818e+01 1.445000e+02 2.101818e+02 8.538636e+01 1.510682e+02 2.167500e+02
-2.275000e+01 -4.343182e+01 -6.411364e+01 -2.481818e+01 -4.550000e+01 -6.618182e+01 -2.688636e+01 -4.756818e+01 -6.825000e+01
-1.325000e+01 -2.529545e+01 -3.734091e+01 -1.445455e+01 -2.650000e+01 -3.854546e+01 -1.565909e+01 -2.770455e+01 -3.975000e+01
-3.750000e+00 -7.159091e+00 -1.056818e+01 -4.090909e+00 -7.500000e+00 -1.090909e+01 -4.431818e+00 -7.840909e+00 -1.125000e+01
5.750000e+00 1.097727e+01 1.620455e+01 6.272727e+00 1.150000e+01 1.672727e+01 6.795455e+00 1.202273e+01 1.725000e+01
1.525000e+01 2.911364e+01 4.297727e+01 1.663636e+01 3.050000e+01 4.436364e+01 1.802273e+01 3.188636e+01 4.575000e+01
2.475000e+01 4.725000e+01 6.975000e+01 2.700000e+01 4.950000e+01 7.200000e+01 2.925000e+01 5.175000e+01 7.425000e+01
3.425000e+01 6.538636e+01 9.652273e+01 3.736364e+01 6.850000e+01 9.963636e+01 4.047727e+01 7.161364e+01 1.027500e+02
4.375000e+01 8.352273e+01 1.232955e+02 4.772727e+01 8.750000e+01 1.272727e+02 5.170454e+01 9.147727e+01 1.312500e+02
5.325000e+01 1.016591e+02 1.500682e+02 5.809091e+01 1.065000e+02 1.549091e+02 6.293182e+01 1.113409e+02 1.597500e+02
6.275000e+01 1.197955e+02 1.768409e+02 6.845454e+01 1.255000e+02 1.825455e+02 7.415909e+01 1.312045e+02 1.882500e+02
7.225000e+01 1.379318e+02 2.036136e+02 7.881818e+01 1.445000e+02 2.101818e+02 8.538636e+01 1.510682e+02 2.167500e+02
-2.275000e+01 -4.343182e+01 -6.411364e+01 -2.481818e+01 -4.550000e+01 -6.618182e+01 -2.688636e+01 -4.756818e+01 -6.825000e+01
-1.325000e+01 -2.529545e+01 -3.734091e+01 -1.445455e+01 -2.650000e+01 -3.854546e+01 -1.565909e+01 -2.770455e+01 -3.975000e+01
-3.750000e+00 -7.159091e+00 -1.056818e+01 -4.090909e+00 -7.500000e+00 -1.090909e+01 -4.431818e+00 -7.840909e+00 -1.125000e+01
5.750000e+00 1.097727e+01 1.620455e+01 6.272727e+00 1.150000e+01 1.672727e+01 6.795455e+00 1.202273e+01 1.725000e+01
1.525000e+01 2.911364e+01 4.297727e+01 1.663636e+01 3.050000e+01 4.436364e+01 1.802273e+01 3.188636e+01 4.575000e+01
2.475000e+01 4.725000e+01 6.975000e+01 2.700000e+01 4.950000e+01 7.200000e+01 2.925000e+01 5.175000e+01 7.425000e+01
3.425000e+01 6.538636e+01 9.652273e+01 3.736364e+01 6.850000e+01 9.963636e+01 4.047727e+01 7.161364e+01 1.027500e+02
4.375000e+01 8.352273e+01 1.232955e+02 4.772727e+01 8.750000e+01 1.272727e+02 5.170454e+01 9.147727e+01 1.312500e+02
5.325000e+01 1.016591e+02 1.500682e+02 5.809091e+01 1.065000e+02 1.549091e+02 6.293182e+01 1.113409e+02 1.597500e+02
6.275000e+01 1.197955e+02 1.768409e+02 6.845454e+01 1.255000e+02 1.825455e+02 7.415909e+01 1.312045e+02 1.882500e+02
7.225000e+01 1.379318e+02 2.036136e+02 7.881818e+01 1.445000e+02 2.101818e+02 8.538636e+01 1.510682e+02 2.167500e+02
-2.275000e+01 -4.343182e+01 -6.411364e+01 -2.481818e+01 -4.550000e+01 -6.618182e+01 -2.688636e+01 -4.756818e+01 -6.825000e+01
-1.325000e+01 -2.529545e+01 -3.734091e+01 -1.445455e+01 -2.650000e+01 -3.854546e+01 -1.565909e+01 -2.770455e+01 -3.975000e+01
-3.750000e+00 -7.159091e+00 -1.056818e+01 -4.090909e+00 -7.500000e+00 -1.090909e+01 -4.431818e+00 -7.840909e+00 -1.125000e+01
5.750000e+00 1.097727e+01 1.620455e+01 6.272727e+00 1.150000e+01 1.672727e+01 6.795455e+00 1.202273e+01 1.725000e+01
1.525000e+01 2.911364e+01 4.297727e+01 1.663636e+01 3.050000e+01 4.436364e+01 1.802273e+01 3.188636e+01 4.575000e+01
2.475000e+01 4.725000e+01 6.975000e+01 2.700000e+01 4.950000e+01 7.200000e+01 2.925000e+01 5.175000e+01 7.425000e+01
3.425000e+01 6.538636e+01 9.652273e+01 3.736364e+01 6.850000e+01 9.963636e+01 4.047727e+01 7.161364e+01 1.027500e+02
4.375000e+01 8.352273e+01 1.232955e+02 4.772727e+01 8.750000e+01 1.272727e+02 5.170454e+01 9.147727e+01 1.312500e+02
5.325000e+01 1.016591e+02 1.500682e+02 5.809091e+01 1.065000e+02 1.549091e+02 6.293182e+01 1.113409e+02 1.597500e+02
6.275000e+01 1.197955e+02 1.768409e+02 6.845454e+01 1.255000e+02 1.825455e+02 7.415909e+01 1.312045e+02 1.882500e+02
7.225000e+01 1.379318e+02 2.036136e+02 7.881818e+01 1.445000e+02 2.101818e+02 8.538636e+01 1.510682e+02 2.167500e+02
-2.275000e+01 -4.343182e+01 -6.411364e+01 -2.481818e+01 -4.550000e+01 -6.618182e+01 -2.688636e+01 -4.756818e+01 -6.825000e+01
-1.325000e+01 -2.529545e+01 -3.734091e+01 -1.445455e+01 -2.650000e+01 -3.854546e+01 -1.565909e+01 -2.770455e+01 -3.975000e+01
-3.750000e+00 -7.159091e+00 -1.056818e+01 -4.090909e+00 -7.500000e+00 -1.090909e+01 -4.431818e+00 -7.840909e+00 -1.125000e+01
5.750000e+00 1.097727e+01 1.620455e+01 6.272727e+00 1.150000e+01 1.672727e+01 6.795455e+00 1.202273e+01 1.725000e+01
1.525000e+01 2.911364e+01 4.297727e+01 1.663636e+01 3.050000e+01 4.436364e+01 1.802273e+01 3.188636e+01 4.575000e+01
2.475000e+01 4.725000e+01 6.975000e+01 2.700000e+01 4.950000e+01 7.200000e+01 2.925000e+01 5.175000e+01 7.425000e+01
3.425000e+01 6.538636e+01 9.652273e+01 3.736364e+01 6.850000e+01 9.963636e+01 4.047727e+01 7.161364e+01 1.027500e+02
4.375000e+01 8.352273e+01 1.232955e+02 4.772727e+01 8.750000e+01 1.272727e+02 5.170454e+01 9.147727e+01 1.312500e+02
5.325000e+01 1.016591e+02 1.500682e+02 5.809091e+01 1.065000e+02 1.549091e+02 6.293182e+01 1.113409e+02 1.597500e+02
6.275000e+01 1.197955e+02 1.768409e+02 6.845454e+01 1.255000e+02 1.825455e+02 7.415909e+01 1.312045e+02 1.882500e+02
7.225000e+01 1.379318e+02 2.036136e+02 7.881818e+01 1.445000e+02 2.101818e+02 8.538636e+01 1.510682e+02 2.167500e+02
-2.275000e+01 -4.343182e+01 -6.411364e+01 -2.481818e+01 -4.550000e+01 -6.618182e+01 -2.688636e+01 -4.756818e+01 -6.825000e+01
-1.325000e+01 -2.529545e+01 -3.734091e+01 -1.445455e+01 -2.650000e+01 -3.854546e+01 -1.565909e+01 -2.770455e+01 -3.975000e+01
-3.750000e+00 -7.159091e+00 -1.056818e+01 -4.090909e+00 -7.500000e+00 -1.090909e+01 -4.431818e+00 -7.840909e+00 -1.125000e+01
5.750000e+00 1.097727e+01 1.620455e+01 6.272727e+00 1.150000e+01 1.672727e+01 6.795455e+00 1.202273e+01 1.725000e+01
1.525000e+01 2.911364e+01 4.297727e+01 1.663636e+01 3.050000e+01 4.436364e+01 1.802273e+01 3.188636e+01 4.575000e+01
2.475000e+01 4.725000e+01 6.975000e+01 2.700000e+01 4.950000e+01 7.200000e+01 2.925000e+01 5.175000e+01 7.425000e+01
3.425000e+01 6.538636e+01 9.652273e+01 3.736364e+01 6.850000e+01 9.963636e+01 4.047727e+01 7.161364e+01 1.027500e+02
4.375000e+01 8.352273e+01 1.232955e+02 4.772727e+01 8.750000e+01 1.272727e+02 5.170454e+01 9.147727e+01 1.312500e+02
5.325000e+01 1.016591e+02 1.500682e+02 5.809091e+01 1.065000e+02 1.549091e+02 6.293182e+01 1.113409e+02 1.597500e+02
6.275000e+01 1.197955e+02 1.768409e+02 6.845454e+01 1.255000e+02 1.825455e+02 7.415909e+01 1.312045e+02 1.882500e+02
7.225000e+01 1.379318e+02 2.036136e+02 7.881818e+01 1.445000e+02 2.101818e+02 8.538636e+01 1.510682e+02 2.167500e+02
</DataArray>
<DataArray Name="data_v" type="Float64" NumberOfComponents="3" format="ascii">
-2.500000e+00 -5.000000e+00 -7.500000e+00
-2.500000e+00 -5.000000e+00 -7.500000e+00
-2.500000e+00 -5.000000e+00 -7.500000e+00
-2.500000e+00 -5.000000e+00 -7.500000e+00
-2.500000e+00 -5.000000e+00 -7.500000e+00
-2.500000e+00 -5.000000e+00 -7.500000e+00
7.000000e+00 1.400000e+01 2.100000e+01
7.000000e+00 1.400000e+01 2.100000e+01
7.000000e+00 1.400000e+01 2.100000e+01
7.000000e+00 1.400000e+01 2.100000e+01
7.000000e+00 1.400000e+01 2.100000e+01
7.000000e+00 1.400000e+01 2.100000e+01
-2.068182e+00 -4.136364e+00 -6.204545e+00
-1.204545e+00 -2.409091e+00 -3.613636e+00
-3.409091e-01 -6.818182e-01 -1.022727e+00
5.227273e-01 1.045455e+00 1.568182e+00
1.386364e+00 2.772727e+00 4.159091e+00
2.250000e+00 4.500000e+00 6.750000e+00
3.113636e+00 6.227273e+00 9.340909e+00
3.977273e+00 7.954545e+00 1.193182e+01
4.840909e+00 9.681818e+00 1.452273e+01
5.704545e+00 1.140909e+01 1.711364e+01
6.568182e+00 1.313636e+01 1.970455e+01
-2.068182e+00 -4.136364e+00 -6.204545e+00
-1.204545e+00 -2.409091e+00 -3.613636e+00
-3.409091e-01 -6.818182e-01 -1.022727e+00
5.227273e-01 1.045455e+00 1.568182e+00
1.386364e+00 2.772727e+00 4.159091e+00
2.250000e+00 4.500000e+00 6.750000e+00
3.113636e+00 6.227273e+00 9.340909e+00
3.977273e+00 7.954545e+00 1.193182e+01
4.840909e+00 9.681818e+00 1.452273e+01
5.704545e+00 1.140909e+01 1.711364e+01
6.568182e+00 1.313636e+01 1.970455e+01
-2.068182e+00 -4.136364e+00 -6.204545e+00
-1.204545e+00 -2.409091e+00 -3.613636e+00
-3.409091e-01 -6.818182e-01 -1.022727e+00
5.227273e-01 1.045455e+00 1.568182e+00
1.386364e+00 2.772727e+00 4.159091e+00
2.250000e+00 4.500000e+00 6.750000e+00
3.113636e+00 6.227273e+00 9.340909e+00
3.977273e+00 7.954545e+00 1.193182e+01
4.840909e+00 9.681818e+00 1.452273e+01
5.704545e+00 1.140909e+01 1.711364e+01
6.568182e+00 1.313636e+01 1.970455e+01
-2.068182e+00 -4.136364e+00 -6.204545e+00
-1.204545e+00 -2.409091e+00 -3.613636e+00
-3.409091e-01 -6.818182e-01 -1.022727e+00
5.227273e-01 1.045455e+00 1.568182e+00
1.386364e+00 2.772727e+00 4.159091e+00
2.250000e+00 4.500000e+00 6.750000e+00
3.113636e+00 6.227273e+00 9.340909e+00
3.977273e+00 7.954545e+00 1.193182e+01
4.840909e+00 9.681818e+00 1.452273e+01
5.704545e+00 1.140909e+01 1.711364e+01
6.568182e+00 1.313636e+01 1.970455e+01
-2.068182e+00 -4.136364e+00 -6.204545e+00
-1.204545e+00 -2.409091e+00 -3.613636e+00
-3.409091e-01 -6.818182e-01 -1.022727e+00
5.227273e-01 1.045455e+00 1.568182e+00
1.386364e+00 2.772727e+00 4.159091e+00
2.250000e+00 4.500000e+00 6.750000e+00
3.113636e+00 6.227273e+00 9.340909e+00
3.977273e+00 7.954545e+00 1.193182e+01
4.840909e+00 9.681818e+00 1.452273e+01
5.704545e+00 1.140909e+01 1.711364e+01
6.568182e+00 1.313636e+01 1.970455e+01
-2.068182e+00 -4.136364e+00 -6.204545e+00
-1.204545e+00 -2.409091e+00 -3.613636e+00
-3.409091e-01 -6.818182e-01 -1.022727e+00
5.227273e-01 1.045455e+00 1.568182e+00
1.386364e+00 2.772727e+00 4.159091e+00
2.250000e+00 4.500000e+00 6.750000e+00
3.113636e+00 6.227273e+00 9.340909e+00
3.977273e+00 7.954545e+00 1.193182e+01
4.840909e+00 9.681818e+00 1.452273e+01
5.704545e+00 1.140909e+01 1.711364e+01
6.568182e+00 1.313636e+01 1.970455e+01
-2.068182e+00 -4.136364e+00 -6.204545e+00
-1.204545e+00 -2.409091e+00 -3.613636e+00
-3.409091e-01 -6.818182e-01 -1.022727e+00
5.227273e-01 1.045455e+00 1.568182e+00
1.386364e+00 2.772727e+00 4.159091e+00
2.250000e+00 4.500000e+00 6.750000e+00
3.113636e+00 6.227273e+00 9.340909e+00
3.977273e+00 7.954545e+00 1.193182e+01
4.840909e+00 9.681818e+00 1.452273e+01
5.704545e+00 1.140909e+01 1.711364e+01
6.568182e+00 1.313636e+01 1.970455e+01
-2.068182e+00 -4.136364e+00 -6.204545e+00
-1.204545e+00 -2.409091e+00 -3.613636e+00
-3.409091e-01 -6.818182e-01 -1.022727e+00
5.227273e-01 1.045455e+00 1.568182e+00
1.386364e+00 2.772727e+00 4.159091e+00
2.250000e+00 4.500000e+00 6.750000e+00
3.113636e+00 6.227273e+00 9.340909e+00
3.977273e+00 7.954545e+00 1.193182e+01
4.840909e+00 9.681818e+00 1.452273e+01
5.704545e+00 1.140909e+01 1.711364e+01
6.568182e+00 1.313636e+01 1.970455e+01
-2.068182e+00 -4.136364e+00 -6.204545e+00
-1.204545e+00 -2.409091e+00 -3.613636e+00
-3.409091e-01 -6.818182e-01 -1.022727e+00
5.227273e-01 1.045455e+00 1.568182e+00
1.386364e+00 2.772727e+00 4.159091e+00
2.250000e+00 4.500000e+00 6.750000e+00
3.113636e+00 6.227273e+00 9.340909e+00
3.977273e+00 7.954545e+00 1.193182e+01
4.840909e+00 9.681818e+00 1.452273e+01
5.704545e+00 1.140909e+01 1.711364e+01
6.568182e+00 1.313636e+01 1.970455e+01
-2.068182e+00 -4.136364e+00 -6.204545e+00
-1.204545e+00 -2.409091e+00 -3.613636e+00
-3.409091e-01 -6.818182e-01 -1.022727e+00
5.227273e-01 1.045455e+00 1.568182e+00
1.386364e+00 2.772727e+00 4.159091e+00
2.250000e+00 4.500000e+00 6.750000e+00
3.113636e+00 6.227273e+00 9.340909e+00
3.977273e+00 7.954545e+00 1.193182e+01
4.840909e+00 9.681818e+00 1.452273e+01
5.704545e+00 1.140909e+01 1.711364e+01