<?xml version="1.0"?>
<VTKFile type="UnstructuredGrid" version="0.1">
<UnstructuredGrid>
<FieldData>
<DataArray Name="TIME" type="Float64" format="ascii" NumberOfTuples="1">
0.000000e+00
</DataArray>
</FieldData>
<FieldData>
<DataArray Name="CYCLE" type="Int32" format="ascii" NumberOfTuples="1">
0
</DataArray>
</FieldData>
<Piece NumberOfPoints="53" NumberOfCells="80">
<Points>
<DataArray NumberOfComponents="3" type="Float64" format="ascii">
1.000000e+00 1.000000e+00 0.000000e+00
1.000000e+00 6.666667e-01 0.000000e+00
1.000000e+00 8.333333e-01 0.000000e+00
1.000000e+00 3.333333e-01 0.000000e+00
1.000000e+00 5.000000e-01 0.000000e+00
1.000000e+00 0.000000e+00 0.000000e+00
1.000000e+00 1.666667e-01 0.000000e+00
6.666667e-01 0.000000e+00 0.000000e+00
8.333333e-01 0.000000e+00 0.000000e+00
3.333333e-01 0.000000e+00 0.000000e+00
5.000000e-01 0.000000e+00 0.000000e+00
0.000000e+00 0.000000e+00 0.000000e+00
1.666667e-01 0.000000e+00 0.000000e+00
0.000000e+00 1.000000e+00 0.000000e+00
0.000000e+00 6.666667e-01 0.000000e+00
0.000000e+00 8.333333e-01 0.000000e+00
0.000000e+00 3.333333e-01 0.000000e+00
0.000000e+00 5.000000e-01 0.000000e+00
0.000000e+00 1.666667e-01 0.000000e+00
3.333333e-01 1.000000e+00 0.000000e+00
1.666667e-01 1.000000e+00 0.000000e+00
6.666667e-01 1.000000e+00 0.000000e+00
5.000000e-01 1.000000e+00 0.000000e+00
8.333333e-01 1.000000e+00 0.000000e+00
7.014658e-01 2.986558e-01 0.000000e+00
3.239390e-01 2.773111e-01 0.000000e+00
6.840662e-01 1.493279e-01 0.000000e+00
4.953028e-01 1.386555e-01 0.000000e+00
5.127023e-01 2.879834e-01 0.000000e+00
3.286361e-01 1.386555e-01 0.000000e+00
3.050581e-01 6.950284e-01 0.000000e+00
1.619695e-01 3.053222e-01 0.000000e+00
1.525290e-01 5.141808e-01 0.000000e+00
3.144985e-01 4.861697e-01 0.000000e+00
1.525290e-01 6.808475e-01 0.000000e+00
7.227778e-01 6.761019e-01 0.000000e+00
6.947222e-01 8.380510e-01 0.000000e+00
5.139179e-01 6.855651e-01 0.000000e+00
4.858623e-01 8.475142e-01 0.000000e+00
8.507329e-01 3.159946e-01 0.000000e+00
7.121218e-01 4.873788e-01 0.000000e+00
8.613889e-01 5.047176e-01 0.000000e+00
3.191957e-01 8.475142e-01 0.000000e+00
8.613889e-01 6.713843e-01 0.000000e+00
5.000690e-01 5.000334e-01 0.000000e+00
6.007674e-01 3.993446e-01 0.000000e+00
4.120040e-01 3.886723e-01 0.000000e+00
1.525290e-01 8.475142e-01 0.000000e+00
8.613889e-01 8.380510e-01 0.000000e+00
8.507329e-01 1.493279e-01 0.000000e+00
4.025635e-01 5.975309e-01 0.000000e+00
6.114234e-01 5.880677e-01 0.000000e+00
1.619695e-01 1.386555e-01 0.000000e+00
</DataArray>
</Points>
<Cells>
<DataArray Name="connectivity" type="Int32" format="ascii">
21 23 36
36 48 35
23 0 48
48 36 23
0 2 48
48 43 35
2 1 43
43 48 2
1 4 43
43 41 35
4 3 41
41 43 4
3 39 41
41 40 35
39 24 40
40 41 39
3 6 39
39 49 24
6 5 49
49 39 6
5 8 49
49 26 24
8 7 26
26 49 8
24 26 28
28 27 25
26 7 27
27 28 26
7 10 27
27 29 25
10 9 29
29 27 10
9 12 29
29 52 25
12 11 52
52 29 12
11 18 52
52 31 25
18 16 31
31 52 18
13 20 47
47 42 30
20 19 42
42 47 20
14 15 34
34 47 30
15 13 47
47 34 15
16 17 32
32 34 30
17 14 34
34 32 17
25 31 33
33 32 30
31 16 32
32 33 31
19 22 42
42 38 30
22 21 38
38 42 22
21 36 38
38 37 30
36 35 37
37 38 36
44 45 46
46 28 25
45 24 28
28 46 45
24 45 40
40 51 35
45 44 51
51 40 45
44 46 50
50 33 30
46 25 33
33 50 46
35 51 37
37 50 30
51 44 50
50 37 51
</DataArray>
<DataArray Name="offsets" type="Int32" format="ascii">
3
6
9
12
15
18
21
24
27
30
33
36
39
42
45
48
51
54
57
60
63
66
69
72
75
78
81
84
87
90
93
96
99
102
105
108
111
114
117
120
123
126
129
132
135
138
141
144
147
150
153
156
159
162
165
168
171
174
177
180
183
186
189
192
195
198
201
204
207
210
213
216
219
222
225
228
231
234
237
240
</DataArray>
<DataArray Name="types" type="UInt8" format="ascii">
5
5
5
5
5
5
5
5
5
5
5
5
5
5
5
5
5
5
5
5
5
5
5
5
5
5
5
5
5
5
5
5
5
5
5
5
5
5
5
5
5
5
5
5
5
5
5
5
5
5
5
5
5
5
5
5
5
5
5
5
5
5
5
5
5
5
5
5
5
5
5
5
5
5
5
5
5
5
5
5
</DataArray>
</Cells>
<PointData>
<DataArray Name="mesh_vars/Nodes_Id" type="Float64" NumberOfComponents="1" format="ascii">
0.000000e+00
1.000000e+00
2.000000e+00
3.000000e+00
4.000000e+00
5.000000e+00
6.000000e+00
7.000000e+00
8.000000e+00
9.000000e+00
1.000000e+01
1.100000e+01
1.200000e+01
1.300000e+01
1.400000e+01
1.500000e+01
1.600000e+01
1.700000e+01
1.800000e+01
1.900000e+01
2.000000e+01
2.100000e+01
2.200000e+01
2.300000e+01
2.400000e+01
2.500000e+01
2.600000e+01
2.700000e+01
2.800000e+01
2.900000e+01
3.000000e+01
3.100000e+01
3.200000e+01
3.300000e+01
3.400000e+01
3.500000e+01
3.600000e+01
3.700000e+01
3.800000e+01
3.900000e+01
4.000000e+01
4.100000e+01
4.200000e+01
4.300000e+01
4.400000e+01
4.500000e+01
4.600000e+01
4.700000e+01
4.800000e+01
4.900000e+01
5.000000e+01
5.100000e+01
5.200000e+01
</DataArray>
<DataArray Name="mesh_vars/Nodes_Tag" type="Float64" NumberOfComponents="1" format="ascii">
0.000000e+00
0.000000e+00
0.000000e+00
0.000000e+00
0.000000e+00
0.000000e+00
0.000000e+00
0.000000e+00
0.000000e+00
0.000000e+00
0.000000e+00
0.000000e+00
0.000000e+00
0.000000e+00
0.000000e+00
0.000000e+00
0.000000e+00
0.000000e+00
0.000000e+00
0.000000e+00
0.000000e+00
0.000000e+00
0.000000e+00
0.000000e+00
0.000000e+00
0.000000e+00
0.000000e+00
0.000000e+00
0.000000e+00
0.000000e+00
0.000000e+00
0.000000e+00
0.000000e+00
0.000000e+00
0.000000e+00
0.000000e+00
0.000000e+00
0.000000e+00
0.000000e+00
0.000000e+00
0.000000e+00
0.000000e+00
0.000000e+00
0.000000e+00
0.000000e+00
0.000000e+00
0.000000e+00
0.000000e+00
0.000000e+00
0.000000e+00
0.000000e+00
0.000000e+00
0.000000e+00
</DataArray>
<DataArray Name="mesh_vars/Nodes_gDOF" type="Float64" NumberOfComponents="1" format="ascii">
0.000000e+00
1.000000e+00
2.000000e+00
3.000000e+00
4.000000e+00
5.000000e+00
6.000000e+00
7.000000e+00
8.000000e+00
9.000000e+00
1.000000e+01
1.100000e+01
1.200000e+01
1.300000e+01
1.400000e+01
1.500000e+01
1.600000e+01
1.700000e+01
1.800000e+01
1.900000e+01
2.000000e+01
2.100000e+01
2.200000e+01
2.300000e+01
2.400000e+01
2.500000e+01
2.600000e+01
2.700000e+01
2.800000e+01
2.900000e+01
3.000000e+01
3.100000e+01
3.200000e+01
3.300000e+01
3.400000e+01
3.500000e+01
3.600000e+01
3.700000e+01
3.800000e+01
3.900000e+01
4.000000e+01
4.100000e+01
4.200000e+01
4.300000e+01
4.400000e+01
4.500000e+01
4.600000e+01
4.700000e+01
4.800000e+01
4.900000e+01
5.000000e+01
5.100000e+01
5.200000e+01
</DataArray>
<DataArray Name="mesh_vars/Nodes_gNI" type="Float64" NumberOfComponents="1" format="ascii">
0.000000e+00
1.000000e+00
2.000000e+00
3.000000e+00
4.000000e+00
5.000000e+00
6.000000e+00
7.000000e+00
8.000000e+00
9.000000e+00
1.000000e+01
1.100000e+01
1.200000e+01
1.300000e+01
1.400000e+01
1.500000e+01
1.600000e+01
1.700000e+01
1.800000e+01
1.900000e+01
2.000000e+01
2.100000e+01
2.200000e+01
2.300000e+01
2.400000e+01
2.500000e+01
2.600000e+01
2.700000e+01
2.800000e+01
2.900000e+01
3.000000e+01
3.100000e+01
3.200000e+01
3.300000e+01
3.400000e+01
3.500000e+01
3.600000e+01
3.700000e+01
3.800000e+01
3.900000e+01
4.000000e+01
4.100000e+01
4.200000e+01
4.300000e+01
4.400000e+01
4.500000e+01
4.600000e+01
4.700000e+01
4.800000e+01
4.900000e+01
5.000000e+01
5.100000e+01
5.200000e+01
</DataArray>
<DataArray Name="mesh_vars/Nodes_grDfI" type="Float64" NumberOfComponents="1" format="ascii">
0.000000e+00
1.000000e+00
-1.000000e+00
2.000000e+00
-1.000000e+00
3.000000e+00
-1.000000e+00
4.000000e+00
-1.000000e+00
5.000000e+00
-1.000000e+00
6.000000e+00
-1.000000e+00
7.000000e+00
8.000000e+00
-1.000000e+00
9.000000e+00
-1.000000e+00
-1.000000e+00
1.000000e+01
-1.000000e+00
1.100000e+01
-1.000000e+00
-1.000000e+00
1.200000e+01
1.300000e+01
-1.000000e+00
-1.000000e+00
-1.000000e+00
-1.000000e+00
1.400000e+01
-1.000000e+00
-1.000000e+00
-1.000000e+00
-1.000000e+00
1.500000e+01
-1.000000e+00
-1.000000e+00
-1.000000e+00
-1.000000e+00
-1.000000e+00
-1.000000e+00
-1.000000e+00
-1.000000e+00
1.600000e+01
-1.000000e+00
-1.000000e+00
-1.000000e+00
-1.000000e+00
-1.000000e+00
-1.000000e+00
-1.000000e+00
-1.000000e+00
</DataArray>
<DataArray Name="mesh_vars/Nodes_grNI" type="Float64" NumberOfComponents="1" format="ascii">
0.000000e+00
1.000000e+00
-1.000000e+00
2.000000e+00
-1.000000e+00
3.000000e+00
-1.000000e+00
4.000000e+00
-1.000000e+00
5.000000e+00
-1.000000e+00
6.000000e+00
-1.000000e+00
7.000000e+00
8.000000e+00
-1.000000e+00
9.000000e+00
-1.000000e+00
-1.000000e+00
1.000000e+01
-1.000000e+00
1.100000e+01
-1.000000e+00
-1.000000e+00
1.200000e+01
1.300000e+01
-1.000000e+00
-1.000000e+00
-1.000000e+00
-1.000000e+00
1.400000e+01
-1.000000e+00
-1.000000e+00
-1.000000e+00
-1.000000e+00
1.500000e+01
-1.000000e+00
-1.000000e+00
-1.000000e+00
-1.000000e+00
-1.000000e+00
-1.000000e+00
-1.000000e+00
-1.000000e+00
1.600000e+01
-1.000000e+00
-1.000000e+00
-1.000000e+00
-1.000000e+00
-1.000000e+00
-1.000000e+00
-1.000000e+00
-1.000000e+00
</DataArray>
</PointData>
<CellData>
<DataArray Name="data_s" type="Float64" NumberOfComponents="1" format="ascii">
7.640278e-01
7.780555e-01
8.473611e-01
7.964815e-01
9.306945e-01
8.613889e-01
9.306945e-01
9.075926e-01
9.306945e-01
8.613889e-01
9.306945e-01
9.075926e-01
8.560609e-01
7.867553e-01
7.814273e-01
8.080812e-01
9.253664e-01
8.507329e-01
9.253664e-01
9.004886e-01
8.420331e-01
7.673995e-01
7.586998e-01
7.893775e-01
5.983843e-01
5.040026e-01
5.896845e-01
5.640238e-01
4.976514e-01
4.119695e-01
4.143181e-01
4.413130e-01
2.476514e-01
2.453028e-01
1.643181e-01
2.190908e-01
8.098474e-02
1.619695e-01
8.098474e-02
1.079797e-01
1.595978e-01
2.358624e-01
2.429312e-01
2.127971e-01
7.626452e-02
1.525290e-01
7.626452e-02
1.016860e-01
7.626452e-02
1.525290e-01
7.626452e-02
1.016860e-01
2.382340e-01
2.335138e-01
1.572493e-01
2.096657e-01
4.095978e-01
4.025290e-01
4.929312e-01
4.350193e-01
5.902923e-01
4.998901e-01
6.043200e-01
5.648342e-01
5.063857e-01
4.623532e-01
5.567349e-01
5.084912e-01
6.564445e-01
6.617726e-01
6.060954e-01
6.414375e-01
4.072837e-01
3.585310e-01
3.632512e-01
3.763553e-01
5.626706e-01
4.582407e-01
5.069934e-01
5.093016e-01
</DataArray>
<DataArray Name="data_t" type="Float64" NumberOfComponents="9" format="ascii">
8.404305e+00 1.604458e+01 0.000000e+00 9.168333e+00 1.680861e+01 0.000000e+00 0.000000e+00 0.000000e+00 0.000000e+00
8.558611e+00 1.633917e+01 0.000000e+00 9.336667e+00 1.711722e+01 0.000000e+00 0.000000e+00 0.000000e+00 0.000000e+00
9.320972e+00 1.779458e+01 0.000000e+00 1.016833e+01 1.864194e+01 0.000000e+00 0.000000e+00 0.000000e+00 0.000000e+00
8.761296e+00 1.672611e+01 0.000000e+00 9.557778e+00 1.752259e+01 0.000000e+00 0.000000e+00 0.000000e+00 0.000000e+00
1.023764e+01 1.954458e+01 0.000000e+00 1.116833e+01 2.047528e+01 0.000000e+00 0.000000e+00 0.000000e+00 0.000000e+00
9.475278e+00 1.808917e+01 0.000000e+00 1.033667e+01 1.895056e+01 0.000000e+00 0.000000e+00 0.000000e+00 0.000000e+00
1.023764e+01 1.954458e+01 0.000000e+00 1.116833e+01 2.047528e+01 0.000000e+00 0.000000e+00 0.000000e+00 0.000000e+00
9.983519e+00 1.905944e+01 0.000000e+00 1.089111e+01 1.996704e+01 0.000000e+00 0.000000e+00 0.000000e+00 0.000000e+00
1.023764e+01 1.954458e+01 0.000000e+00 1.116833e+01 2.047528e+01 0.000000e+00 0.000000e+00 0.000000e+00 0.000000e+00
9.475278e+00 1.808917e+01 0.000000e+00 1.033667e+01 1.895056e+01 0.000000e+00 0.000000e+00 0.000000e+00 0.000000e+00
1.023764e+01 1.954458e+01 0.000000e+00 1.116833e+01 2.047528e+01 0.000000e+00 0.000000e+00 0.000000e+00 0.000000e+00
9.983519e+00 1.905944e+01 0.000000e+00 1.089111e+01 1.996704e+01 0.000000e+00 0.000000e+00 0.000000e+00 0.000000e+00
9.416670e+00 1.797728e+01 0.000000e+00 1.027273e+01 1.883334e+01 0.000000e+00 0.000000e+00 0.000000e+00 0.000000e+00
8.654308e+00 1.652186e+01 0.000000e+00 9.441065e+00 1.730862e+01 0.000000e+00 0.000000e+00 0.000000e+00 0.000000e+00
8.595701e+00 1.640997e+01 0.000000e+00 9.377129e+00 1.719140e+01 0.000000e+00 0.000000e+00 0.000000e+00 0.000000e+00
8.888893e+00 1.696971e+01 0.000000e+00 9.696975e+00 1.777779e+01 0.000000e+00 0.000000e+00 0.000000e+00 0.000000e+00
1.017903e+01 1.943270e+01 0.000000e+00 1.110440e+01 2.035806e+01 0.000000e+00 0.000000e+00 0.000000e+00 0.000000e+00
9.358062e+00 1.786539e+01 0.000000e+00 1.020879e+01 1.871612e+01 0.000000e+00 0.000000e+00 0.000000e+00 0.000000e+00
1.017903e+01 1.943270e+01 0.000000e+00 1.110440e+01 2.035806e+01 0.000000e+00 0.000000e+00 0.000000e+00 0.000000e+00
9.905375e+00 1.891026e+01 0.000000e+00 1.080586e+01 1.981075e+01 0.000000e+00 0.000000e+00 0.000000e+00 0.000000e+00
9.262364e+00 1.768270e+01 0.000000e+00 1.010440e+01 1.852473e+01 0.000000e+00 0.000000e+00 0.000000e+00 0.000000e+00
8.441395e+00 1.611539e+01 0.000000e+00 9.208795e+00 1.688279e+01 0.000000e+00 0.000000e+00 0.000000e+00 0.000000e+00
8.345697e+00 1.593270e+01 0.000000e+00 9.104397e+00 1.669139e+01 0.000000e+00 0.000000e+00 0.000000e+00 0.000000e+00
8.683152e+00 1.657693e+01 0.000000e+00 9.472529e+00 1.736630e+01 0.000000e+00 0.000000e+00 0.000000e+00 0.000000e+00
6.582227e+00 1.256607e+01 0.000000e+00 7.180612e+00 1.316445e+01 0.000000e+00 0.000000e+00 0.000000e+00 0.000000e+00
5.544028e+00 1.058405e+01 0.000000e+00 6.048031e+00 1.108806e+01 0.000000e+00 0.000000e+00 0.000000e+00 0.000000e+00
6.486529e+00 1.238338e+01 0.000000e+00 7.076214e+00 1.297306e+01 0.000000e+00 0.000000e+00 0.000000e+00 0.000000e+00
6.204262e+00 1.184450e+01 0.000000e+00 6.768286e+00 1.240852e+01 0.000000e+00 0.000000e+00 0.000000e+00 0.000000e+00
5.474165e+00 1.045068e+01 0.000000e+00 5.971817e+00 1.094833e+01 0.000000e+00 0.000000e+00 0.000000e+00 0.000000e+00
4.531664e+00 8.651360e+00 0.000000e+00 4.943634e+00 9.063329e+00 0.000000e+00 0.000000e+00 0.000000e+00 0.000000e+00
4.557499e+00 8.700680e+00 0.000000e+00 4.971817e+00 9.114998e+00 0.000000e+00 0.000000e+00 0.000000e+00 0.000000e+00
4.854443e+00 9.267572e+00 0.000000e+00 5.295756e+00 9.708885e+00 0.000000e+00 0.000000e+00 0.000000e+00 0.000000e+00
2.724165e+00 5.200680e+00 0.000000e+00 2.971817e+00 5.448331e+00 0.000000e+00 0.000000e+00 0.000000e+00 0.000000e+00
2.698331e+00 5.151359e+00 0.000000e+00 2.943634e+00 5.396662e+00 0.000000e+00 0.000000e+00 0.000000e+00 0.000000e+00
1.807499e+00 3.450680e+00 0.000000e+00 1.971817e+00 3.614998e+00 0.000000e+00 0.000000e+00 0.000000e+00 0.000000e+00
2.409998e+00 4.600906e+00 0.000000e+00 2.629089e+00 4.819997e+00 0.000000e+00 0.000000e+00 0.000000e+00 0.000000e+00
8.908321e-01 1.700680e+00 0.000000e+00 9.718169e-01 1.781664e+00 0.000000e+00 0.000000e+00 0.000000e+00 0.000000e+00
1.781664e+00 3.401359e+00 0.000000e+00 1.943634e+00 3.563329e+00 0.000000e+00 0.000000e+00 0.000000e+00 0.000000e+00
8.908321e-01 1.700680e+00 0.000000e+00 9.718169e-01 1.781664e+00 0.000000e+00 0.000000e+00 0.000000e+00 0.000000e+00
1.187776e+00 2.267573e+00 0.000000e+00 1.295756e+00 2.375552e+00 0.000000e+00 0.000000e+00 0.000000e+00 0.000000e+00
1.755576e+00 3.351555e+00 0.000000e+00 1.915174e+00 3.511153e+00 0.000000e+00 0.000000e+00 0.000000e+00 0.000000e+00
2.594486e+00 4.953110e+00 0.000000e+00 2.830348e+00 5.188972e+00 0.000000e+00 0.000000e+00 0.000000e+00 0.000000e+00
2.672243e+00 5.101555e+00 0.000000e+00 2.915174e+00 5.344486e+00 0.000000e+00 0.000000e+00 0.000000e+00 0.000000e+00
2.340768e+00 4.468740e+00 0.000000e+00 2.553566e+00 4.681537e+00 0.000000e+00 0.000000e+00 0.000000e+00 0.000000e+00
8.389096e-01 1.601555e+00 0.000000e+00 9.151741e-01 1.677819e+00 0.000000e+00 0.000000e+00 0.000000e+00 0.000000e+00
1.677819e+00 3.203110e+00 0.000000e+00 1.830348e+00 3.355639e+00 0.000000e+00 0.000000e+00 0.000000e+00 0.000000e+00
8.389096e-01 1.601555e+00 0.000000e+00 9.151741e-01 1.677819e+00 0.000000e+00 0.000000e+00 0.000000e+00 0.000000e+00
1.118546e+00 2.135406e+00 0.000000e+00 1.220232e+00 2.237092e+00 0.000000e+00 0.000000e+00 0.000000e+00 0.000000e+00
8.389096e-01 1.601555e+00 0.000000e+00 9.151741e-01 1.677819e+00 0.000000e+00 0.000000e+00 0.000000e+00 0.000000e+00
1.677819e+00 3.203110e+00 0.000000e+00 1.830348e+00 3.355639e+00 0.000000e+00 0.000000e+00 0.000000e+00 0.000000e+00
8.389096e-01 1.601555e+00 0.000000e+00 9.151741e-01 1.677819e+00 0.000000e+00 0.000000e+00 0.000000e+00 0.000000e+00
1.118546e+00 2.135406e+00 0.000000e+00 1.220232e+00 2.237092e+00 0.000000e+00 0.000000e+00 0.000000e+00 0.000000e+00
2.620574e+00 5.002914e+00 0.000000e+00 2.858808e+00 5.241148e+00 0.000000e+00 0.000000e+00 0.000000e+00 0.000000e+00
2.568651e+00 4.903789e+00 0.000000e+00 2.802165e+00 5.137303e+00 0.000000e+00 0.000000e+00 0.000000e+00 0.000000e+00
1.729742e+00 3.302234e+00 0.000000e+00 1.886991e+00 3.459484e+00 0.000000e+00 0.000000e+00 0.000000e+00 0.000000e+00
2.306322e+00 4.402979e+00 0.000000e+00 2.515988e+00 4.612645e+00 0.000000e+00 0.000000e+00 0.000000e+00 0.000000e+00
4.505576e+00 8.601555e+00 0.000000e+00 4.915174e+00 9.011152e+00 0.000000e+00 0.000000e+00 0.000000e+00 0.000000e+00
4.427819e+00 8.453110e+00 0.000000e+00 4.830348e+00 8.855639e+00 0.000000e+00 0.000000e+00 0.000000e+00 0.000000e+00
5.422243e+00 1.035155e+01 0.000000e+00 5.915174e+00 1.084449e+01 0.000000e+00 0.000000e+00 0.000000e+00 0.000000e+00
4.785213e+00 9.135406e+00 0.000000e+00 5.220232e+00 9.570425e+00 0.000000e+00 0.000000e+00 0.000000e+00 0.000000e+00
6.493215e+00 1.239614e+01 0.000000e+00 7.083508e+00 1.298643e+01 0.000000e+00 0.000000e+00 0.000000e+00 0.000000e+00
5.498792e+00 1.049769e+01 0.000000e+00 5.998682e+00 1.099758e+01 0.000000e+00 0.000000e+00 0.000000e+00 0.000000e+00
6.647521e+00 1.269072e+01 0.000000e+00 7.251841e+00 1.329504e+01 0.000000e+00 0.000000e+00 0.000000e+00 0.000000e+00
6.213176e+00 1.186152e+01 0.000000e+00 6.778010e+00 1.242635e+01 0.000000e+00 0.000000e+00 0.000000e+00 0.000000e+00
5.570243e+00 1.063410e+01 0.000000e+00 6.076628e+00 1.114049e+01 0.000000e+00 0.000000e+00 0.000000e+00 0.000000e+00
5.085885e+00 9.709416e+00 0.000000e+00 5.548238e+00 1.017177e+01 0.000000e+00 0.000000e+00 0.000000e+00 0.000000e+00
6.124084e+00 1.169143e+01 0.000000e+00 6.680819e+00 1.224817e+01 0.000000e+00 0.000000e+00 0.000000e+00 0.000000e+00
5.593404e+00 1.067832e+01 0.000000e+00 6.101895e+00 1.118681e+01 0.000000e+00 0.000000e+00 0.000000e+00 0.000000e+00
7.220891e+00 1.378534e+01 0.000000e+00 7.877335e+00 1.444178e+01 0.000000e+00 0.000000e+00 0.000000e+00 0.000000e+00
7.279499e+00 1.389722e+01 0.000000e+00 7.941271e+00 1.455900e+01 0.000000e+00 0.000000e+00 0.000000e+00 0.000000e+00
6.667049e+00 1.272800e+01 0.000000e+00 7.273145e+00 1.333410e+01 0.000000e+00 0.000000e+00 0.000000e+00 0.000000e+00
7.055813e+00 1.347019e+01 0.000000e+00 7.697250e+00 1.411163e+01 0.000000e+00 0.000000e+00 0.000000e+00 0.000000e+00
4.480122e+00 8.552958e+00 0.000000e+00 4.887405e+00 8.960243e+00 0.000000e+00 0.000000e+00 0.000000e+00 0.000000e+00
3.943841e+00 7.529151e+00 0.000000e+00 4.302372e+00 7.887682e+00 0.000000e+00 0.000000e+00 0.000000e+00 0.000000e+00
3.995764e+00 7.628276e+00 0.000000e+00 4.359015e+00 7.991528e+00 0.000000e+00 0.000000e+00 0.000000e+00 0.000000e+00
4.139909e+00 7.903462e+00 0.000000e+00 4.516264e+00 8.279818e+00 0.000000e+00 0.000000e+00 0.000000e+00 0.000000e+00
6.189377e+00 1.181608e+01 0.000000e+00 6.752048e+00 1.237875e+01 0.000000e+00 0.000000e+00 0.000000e+00 0.000000e+00
5.040648e+00 9.623055e+00 0.000000e+00 5.498889e+00 1.008130e+01 0.000000e+00 0.000000e+00 0.000000e+00 0.000000e+00
5.576928e+00 1.064686e+01 0.000000e+00 6.083921e+00 1.115386e+01 0.000000e+00 0.000000e+00 0.000000e+00 0.000000e+00
5.602318e+00 1.069533e+01 0.000000e+00 6.111619e+00 1.120464e+01 0.000000e+00 0.000000e+00 0.000000e+00 0.000000e+00
</DataArray>
<DataArray Name="data_v" type="Float64" NumberOfComponents="3" format="ascii">
7.640278e-01 1.528056e+00 0.000000e+00
7.780555e-01 1.556111e+00 0.000000e+00
8.473611e-01 1.694722e+00 0.000000e+00
7.964815e-01 1.592963e+00 0.000000e+00
9.306945e-01 1.861389e+00 0.000000e+00
8.613889e-01 1.722778e+00 0.000000e+00
9.306945e-01 1.861389e+00 0.000000e+00
9.075926e-01 1.815185e+00 0.000000e+00
9.306945e-01 1.861389e+00 0.000000e+00
8.613889e-01 1.722778e+00 0.000000e+00
9.306945e-01 1.861389e+00 0.000000e+00
9.075926e-01 1.815185e+00 0.000000e+00
8.560609e-01 1.712122e+00 0.000000e+00
7.867553e-01 1.573511e+00 0.000000e+00
7.814273e-01 1.562855e+00 0.000000e+00
8.080812e-01 1.616162e+00 0.000000e+00
9.253664e-01 1.850733e+00 0.000000e+00
8.507329e-01 1.701466e+00 0.000000e+00
9.253664e-01 1.850733e+00 0.000000e+00
9.004886e-01 1.800977e+00 0.000000e+00
8.420331e-01 1.684066e+00 0.000000e+00
7.673995e-01 1.534799e+00 0.000000e+00
7.586998e-01 1.517400e+00 0.000000e+00
7.893775e-01 1.578755e+00 0.000000e+00
5.983843e-01 1.196769e+00 0.000000e+00
5.040026e-01 1.008005e+00 0.000000e+00
5.896845e-01 1.179369e+00 0.000000e+00
5.640238e-01 1.128048e+00 0.000000e+00
4.976514e-01 9.953028e-01 0.000000e+00
4.119695e-01 8.239390e-01 0.000000e+00
4.143181e-01 8.286362e-01 0.000000e+00
4.413130e-01 8.826260e-01 0.000000e+00
2.476514e-01 4.953028e-01 0.000000e+00
2.453028e-01 4.906056e-01 0.000000e+00
1.643181e-01 3.286362e-01 0.000000e+00
2.190908e-01 4.381815e-01 0.000000e+00
8.098474e-02 1.619695e-01 0.000000e+00
1.619695e-01 3.239390e-01 0.000000e+00
8.098474e-02 1.619695e-01 0.000000e+00
1.079797e-01 2.159593e-01 0.000000e+00
1.595978e-01 3.191957e-01 0.000000e+00
2.358624e-01 4.717247e-01 0.000000e+00
2.429312e-01 4.858624e-01 0.000000e+00
2.127971e-01 4.255943e-01 0.000000e+00
7.626452e-02 1.525290e-01 0.000000e+00
1.525290e-01 3.050581e-01 0.000000e+00
7.626452e-02 1.525290e-01 0.000000e+00
1.016860e-01 2.033720e-01 0.000000e+00
7.626452e-02 1.525290e-01 0.000000e+00
1.525290e-01 3.050581e-01 0.000000e+00
7.626452e-02 1.525290e-01 0.000000e+00
1.016860e-01 2.033720e-01 0.000000e+00
2.382340e-01 4.764680e-01 0.000000e+00
2.335138e-01 4.670275e-01 0.000000e+00
1.572493e-01 3.144985e-01 0.000000e+00
2.096657e-01 4.193313e-01 0.000000e+00
4.095978e-01 8.191957e-01 0.000000e+00
4.025290e-01 8.050580e-01 0.000000e+00
4.929312e-01 9.858624e-01 0.000000e+00
4.350193e-01 8.700387e-01 0.000000e+00
5.902923e-01 1.180585e+00 0.000000e+00
4.998901e-01 9.997803e-01 0.000000e+00
6.043200e-01 1.208640e+00 0.000000e+00
5.648342e-01 1.129668e+00 0.000000e+00
5.063857e-01 1.012771e+00 0.000000e+00
4.623532e-01 9.247063e-01 0.000000e+00
5.567349e-01 1.113470e+00 0.000000e+00
5.084912e-01 1.016982e+00 0.000000e+00
6.564445e-01 1.312889e+00 0.000000e+00
6.617726e-01 1.323545e+00 0.000000e+00
6.060954e-01 1.212191e+00 0.000000e+00
6.414375e-01 1.282875e+00 0.000000e+00
4.072837e-01 8.145674e-01 0.000000e+00
3.585310e-01 7.170620e-01 0.000000e+00
3.632512e-01 7.265025e-01 0.000000e+00
3.763553e-01 7.527106e-01 0.000000e+00
5.626706e-01 1.125341e+00 0.000000e+00
4.582407e-01 9.164814e-01 0.000000e+00
5.069934e-01 1.013987e+00 0.000000e+00
5.093016e-01 1.018603e+00 0.000000e+00
</DataArray>
<DataArray Name="mesh_vars/Elements_Color" type="Float64" NumberOfComponents="1" format="ascii">
4.000000e+00
4.000000e+00
4.000000e+00
4.000000e+00
3.000000e+00
3.000000e+00
3.000000e+00
3.000000e+00
0.000000e+00
0.000000e+00
0.000000e+00
0.000000e+00
2.000000e+00
2.000000e+00
2.000000e+00
2.000000e+00
1.000000e+00
1.000000e+00
1.000000e+00
1.000000e+00
4.000000e+00
4.000000e+00
4.000000e+00
4.000000e+00
0.000000e+00
0.000000e+00
0.000000e+00
0.000000e+00
1.000000e+00
1.000000e+00
1.000000e+00
1.000000e+00
5.000000e+00
5.000000e+00
5.000000e+00
5.000000e+00
4.000000e+00
4.000000e+00
4.000000e+00
4.000000e+00
4.000000e+00
4.000000e+00
4.000000e+00
4.000000e+00
5.000000e+00
5.000000e+00
5.000000e+00
5.000000e+00
0.000000e+00
0.000000e+00
0.000000e+00
0.000000e+00
2.000000e+00
2.000000e+00
2.000000e+00
2.000000e+00
3.000000e+00
3.000000e+00
3.000000e+00
3.000000e+00
1.000000e+00
1.000000e+00
1.000000e+00
1.000000e+00
3.000000e+00
3.000000e+00
3.000000e+00
3.000000e+00
5.000000e+00
5.000000e+00
5.000000e+00
5.000000e+00
6.000000e+00
6.000000e+00
6.000000e+00
6.000000e+00
7.000000e+00
7.000000e+00
7.000000e+00
7.000000e+00
</DataArray>
<DataArray Name="mesh_vars/Elements_Id" type="Float64" NumberOfComponents="1" format="ascii">
1.100000e+01
1.100000e+01
1.100000e+01
1.100000e+01
1.400000e+01
1.400000e+01
1.400000e+01
1.400000e+01
7.000000e+00
7.000000e+00
7.000000e+00
7.000000e+00
5.000000e+00
5.000000e+00
5.000000e+00
5.000000e+00
1.200000e+01
1.200000e+01
1.200000e+01
1.200000e+01
1.500000e+01
1.500000e+01
1.500000e+01
1.500000e+01
0.000000e+00
0.000000e+00
0.000000e+00
0.000000e+00
1.000000e+00
1.000000e+00
1.000000e+00
1.000000e+00
1.800000e+01
1.800000e+01
1.800000e+01
1.800000e+01
1.700000e+01
1.700000e+01
1.700000e+01
1.700000e+01
9.000000e+00
9.000000e+00
9.000000e+00
9.000000e+00
1.000000e+01
1.000000e+01
1.000000e+01
1.000000e+01
3.000000e+00
3.000000e+00
3.000000e+00
3.000000e+00
2.000000e+00
2.000000e+00
2.000000e+00
2.000000e+00
6.000000e+00
6.000000e+00
6.000000e+00
6.000000e+00
4.000000e+00
4.000000e+00
4.000000e+00
4.000000e+00
8.000000e+00
8.000000e+00
8.000000e+00
8.000000e+00
1.900000e+01
1.900000e+01
1.900000e+01
1.900000e+01
1.300000e+01
1.300000e+01
1.300000e+01
1.300000e+01
1.600000e+01
1.600000e+01
1.600000e+01
1.600000e+01
</DataArray>
<DataArray Name="mesh_vars/Elements_Owner" type="Float64" NumberOfComponents="1" format="ascii">
0.000000e+00
0.000000e+00
0.000000e+00
0.000000e+00
0.000000e+00
0.000000e+00
0.000000e+00
0.000000e+00
0.000000e+00
0.000000e+00
0.000000e+00
0.000000e+00
0.000000e+00
0.000000e+00
0.000000e+00
0.000000e+00
0.000000e+00
0.000000e+00
0.000000e+00
0.000000e+00
0.000000e+00
0.000000e+00
0.000000e+00
0.000000e+00
0.000000e+00
0.000000e+00
0.000000e+00
0.000000e+00
0.000000e+00
0.000000e+00
0.000000e+00
0.000000e+00
0.000000e+00
0.000000e+00
0.000000e+00
0.000000e+00
0.000000e+00
0.000000e+00
0.000000e+00
0.000000e+00
0.000000e+00
0.000000e+00
0.000000e+00
0.000000e+00
0.000000e+00
0.000000e+00
0.000000e+00
0.000000e+00
0.000000e+00
0.000000e+00
0.000000e+00
0.000000e+00
0.000000e+00
0.000000e+00
0.000000e+00
0.000000e+00
0.000000e+00
0.000000e+00
0.000000e+00
0.000000e+00
0.000000e+00
0.000000e+00
0.000000e+00
0.000000e+00
0.000000e+00
0.000000e+00
0.000000e+00
0.000000e+00
0.000000e+00
0.000000e+00
0.000000e+00
0.000000e+00
0.000000e+00
0.000000e+00
0.000000e+00
0.000000e+00
0.000000e+00
0.000000e+00
0.000000e+00
0.000000e+00
</DataArray>
<DataArray Name="mesh_vars/Elements_Tag" type="Float64" NumberOfComponents="1" format="ascii">
6.000000e+00
6.000000e+00
6.000000e+00
6.000000e+00
6.000000e+00
6.000000e+00
6.000000e+00
6.000000e+00
6.000000e+00
6.000000e+00
6.000000e+00
6.000000e+00
6.000000e+00
6.000000e+00
6.000000e+00
6.000000e+00
6.000000e+00
6.000000e+00
6.000000e+00
6.000000e+00
6.000000e+00
6.000000e+00
6.000000e+00
6.000000e+00
6.000000e+00
6.000000e+00
6.000000e+00
6.000000e+00
6.000000e+00
6.000000e+00
6.000000e+00
6.000000e+00
6.000000e+00
6.000000e+00
6.000000e+00
6.000000e+00
6.000000e+00
6.000000e+00
6.000000e+00
6.000000e+00
6.000000e+00
6.000000e+00
6.000000e+00
6.000000e+00
6.000000e+00
6.000000e+00
6.000000e+00
6.000000e+00
6.000000e+00
6.000000e+00
6.000000e+00
6.000000e+00
6.000000e+00
6.000000e+00
6.000000e+00
6.000000e+00
6.000000e+00
6.000000e+00
6.000000e+00
6.000000e+00
6.000000e+00
6.000000e+00
6.000000e+00
6.000000e+00
6.000000e+00
6.000000e+00
6.000000e+00
6.000000e+00
6.000000e+00
6.000000e+00
6.000000e+00
6.000000e+00
6.000000e+00
6.000000e+00
6.000000e+00
6.000000e+00
6.000000e+00
6.000000e+00
6.000000e+00
6.000000e+00
</DataArray>
</CellData>
</Piece>
</UnstructuredGrid>
</VTKFile>
