<?xml version="1.0"?>
<VTKFile type="UnstructuredGrid" version="0.1">
<UnstructuredGrid>
<Piece NumberOfPoints="3830" NumberOfCells="7422">
<Points>
<DataArray NumberOfComponents="3" type="Float64" format="ascii">
 0.000000e+00 0.000000e+00 0.000000e+00
 1.000000e+00 0.000000e+00 0.000000e+00
 1.000000e+00 1.000000e+00 0.000000e+00
 0.000000e+00 1.000000e+00 0.000000e+00
 1.694915e-02 0.000000e+00 0.000000e+00
 3.389831e-02 0.000000e+00 0.000000e+00
 5.084746e-02 0.000000e+00 0.000000e+00
 6.779661e-02 0.000000e+00 0.000000e+00
 8.474576e-02 0.000000e+00 0.000000e+00
 1.016949e-01 0.000000e+00 0.000000e+00
 1.186441e-01 0.000000e+00 0.000000e+00
 1.355932e-01 0.000000e+00 0.000000e+00
 1.525424e-01 0.000000e+00 0.000000e+00
 1.694915e-01 0.000000e+00 0.000000e+00
 1.864407e-01 0.000000e+00 0.000000e+00
 2.033898e-01 0.000000e+00 0.000000e+00
 2.203390e-01 0.000000e+00 0.000000e+00
 2.372881e-01 0.000000e+00 0.000000e+00
 2.542373e-01 0.000000e+00 0.000000e+00
 2.711864e-01 0.000000e+00 0.000000e+00
 2.881356e-01 0.000000e+00 0.000000e+00
 3.050847e-01 0.000000e+00 0.000000e+00
 3.220339e-01 0.000000e+00 0.000000e+00
 3.389831e-01 0.000000e+00 0.000000e+00
 3.559322e-01 0.000000e+00 0.000000e+00
 3.728814e-01 0.000000e+00 0.000000e+00
 3.898305e-01 0.000000e+00 0.000000e+00
 4.067797e-01 0.000000e+00 0.000000e+00
 4.237288e-01 0.000000e+00 0.000000e+00
 4.406780e-01 0.000000e+00 0.000000e+00
 4.576271e-01 0.000000e+00 0.000000e+00
 4.745763e-01 0.000000e+00 0.000000e+00
 4.915254e-01 0.000000e+00 0.000000e+00
 5.084746e-01 0.000000e+00 0.000000e+00
 5.254237e-01 0.000000e+00 0.000000e+00
 5.423729e-01 0.000000e+00 0.000000e+00
 5.593220e-01 0.000000e+00 0.000000e+00
 5.762712e-01 0.000000e+00 0.000000e+00
 5.932203e-01 0.000000e+00 0.000000e+00
 6.101695e-01 0.000000e+00 0.000000e+00
 6.271186e-01 0.000000e+00 0.000000e+00
 6.440678e-01 0.000000e+00 0.000000e+00
 6.610169e-01 0.000000e+00 0.000000e+00
 6.779661e-01 0.000000e+00 0.000000e+00
 6.949153e-01 0.000000e+00 0.000000e+00
 7.118644e-01 0.000000e+00 0.000000e+00
 7.288136e-01 0.000000e+00 0.000000e+00
 7.457627e-01 0.000000e+00 0.000000e+00
 7.627119e-01 0.000000e+00 0.000000e+00
 7.796610e-01 0.000000e+00 0.000000e+00
 7.966102e-01 0.000000e+00 0.000000e+00
 8.135593e-01 0.000000e+00 0.000000e+00
 8.305085e-01 0.000000e+00 0.000000e+00
 8.474576e-01 0.000000e+00 0.000000e+00
 8.644068e-01 0.000000e+00 0.000000e+00
 8.813559e-01 0.000000e+00 0.000000e+00
 8.983051e-01 0.000000e+00 0.000000e+00
 9.152542e-01 0.000000e+00 0.000000e+00
 9.322034e-01 0.000000e+00 0.000000e+00
 9.491525e-01 0.000000e+00 0.000000e+00
 9.661017e-01 0.000000e+00 0.000000e+00
 9.830508e-01 0.000000e+00 0.000000e+00
 1.000000e+00 1.694915e-02 0.000000e+00
 1.000000e+00 3.389831e-02 0.000000e+00
 1.000000e+00 5.084746e-02 0.000000e+00
 1.000000e+00 6.779661e-02 0.000000e+00
 1.000000e+00 8.474576e-02 0.000000e+00
 1.000000e+00 1.016949e-01 0.000000e+00
 1.000000e+00 1.186441e-01 0.000000e+00
 1.000000e+00 1.355932e-01 0.000000e+00
 1.000000e+00 1.525424e-01 0.000000e+00
 1.000000e+00 1.694915e-01 0.000000e+00
 1.000000e+00 1.864407e-01 0.000000e+00
 1.000000e+00 2.033898e-01 0.000000e+00
 1.000000e+00 2.203390e-01 0.000000e+00
 1.000000e+00 2.372881e-01 0.000000e+00
 1.000000e+00 2.542373e-01 0.000000e+00
 1.000000e+00 2.711864e-01 0.000000e+00
 1.000000e+00 2.881356e-01 0.000000e+00
 1.000000e+00 3.050847e-01 0.000000e+00
 1.000000e+00 3.220339e-01 0.000000e+00
 1.000000e+00 3.389831e-01 0.000000e+00
 1.000000e+00 3.559322e-01 0.000000e+00
 1.000000e+00 3.728814e-01 0.000000e+00
 1.000000e+00 3.898305e-01 0.000000e+00
 1.000000e+00 4.067797e-01 0.000000e+00
 1.000000e+00 4.237288e-01 0.000000e+00
 1.000000e+00 4.406780e-01 0.000000e+00
 1.000000e+00 4.576271e-01 0.000000e+00
 1.000000e+00 4.745763e-01 0.000000e+00
 1.000000e+00 4.915254e-01 0.000000e+00
 1.000000e+00 5.084746e-01 0.000000e+00
 1.000000e+00 5.254237e-01 0.000000e+00
 1.000000e+00 5.423729e-01 0.000000e+00
 1.000000e+00 5.593220e-01 0.000000e+00
 1.000000e+00 5.762712e-01 0.000000e+00
 1.000000e+00 5.932203e-01 0.000000e+00
 1.000000e+00 6.101695e-01 0.000000e+00
 1.000000e+00 6.271186e-01 0.000000e+00
 1.000000e+00 6.440678e-01 0.000000e+00
 1.000000e+00 6.610169e-01 0.000000e+00
 1.000000e+00 6.779661e-01 0.000000e+00
 1.000000e+00 6.949153e-01 0.000000e+00
 1.000000e+00 7.118644e-01 0.000000e+00
 1.000000e+00 7.288136e-01 0.000000e+00
 1.000000e+00 7.457627e-01 0.000000e+00
 1.000000e+00 7.627119e-01 0.000000e+00
 1.000000e+00 7.796610e-01 0.000000e+00
 1.000000e+00 7.966102e-01 0.000000e+00
 1.000000e+00 8.135593e-01 0.000000e+00
 1.000000e+00 8.305085e-01 0.000000e+00
 1.000000e+00 8.474576e-01 0.000000e+00
 1.000000e+00 8.644068e-01 0.000000e+00
 1.000000e+00 8.813559e-01 0.000000e+00
 1.000000e+00 8.983051e-01 0.000000e+00
 1.000000e+00 9.152542e-01 0.000000e+00
 1.000000e+00 9.322034e-01 0.000000e+00
 1.000000e+00 9.491525e-01 0.000000e+00
 1.000000e+00 9.661017e-01 0.000000e+00
 1.000000e+00 9.830508e-01 0.000000e+00
 9.830508e-01 1.000000e+00 0.000000e+00
 9.661017e-01 1.000000e+00 0.000000e+00
 9.491525e-01 1.000000e+00 0.000000e+00
 9.322034e-01 1.000000e+00 0.000000e+00
 9.152542e-01 1.000000e+00 0.000000e+00
 8.983051e-01 1.000000e+00 0.000000e+00
 8.813559e-01 1.000000e+00 0.000000e+00
 8.644068e-01 1.000000e+00 0.000000e+00
 8.474576e-01 1.000000e+00 0.000000e+00
 8.305085e-01 1.000000e+00 0.000000e+00
 8.135593e-01 1.000000e+00 0.000000e+00
 7.966102e-01 1.000000e+00 0.000000e+00
 7.796610e-01 1.000000e+00 0.000000e+00
 7.627119e-01 1.000000e+00 0.000000e+00
 7.457627e-01 1.000000e+00 0.000000e+00
 7.288136e-01 1.000000e+00 0.000000e+00
 7.118644e-01 1.000000e+00 0.000000e+00
 6.949153e-01 1.000000e+00 0.000000e+00
 6.779661e-01 1.000000e+00 0.000000e+00
 6.610169e-01 1.000000e+00 0.000000e+00
 6.440678e-01 1.000000e+00 0.000000e+00
 6.271186e-01 1.000000e+00 0.000000e+00
 6.101695e-01 1.000000e+00 0.000000e+00
 5.932203e-01 1.000000e+00 0.000000e+00
 5.762712e-01 1.000000e+00 0.000000e+00
 5.593220e-01 1.000000e+00 0.000000e+00
 5.423729e-01 1.000000e+00 0.000000e+00
 5.254237e-01 1.000000e+00 0.000000e+00
 5.084746e-01 1.000000e+00 0.000000e+00
 4.915254e-01 1.000000e+00 0.000000e+00
 4.745763e-01 1.000000e+00 0.000000e+00
 4.576271e-01 1.000000e+00 0.000000e+00
 4.406780e-01 1.000000e+00 0.000000e+00
 4.237288e-01 1.000000e+00 0.000000e+00
 4.067797e-01 1.000000e+00 0.000000e+00
 3.898305e-01 1.000000e+00 0.000000e+00
 3.728814e-01 1.000000e+00 0.000000e+00
 3.559322e-01 1.000000e+00 0.000000e+00
 3.389831e-01 1.000000e+00 0.000000e+00
 3.220339e-01 1.000000e+00 0.000000e+00
 3.050847e-01 1.000000e+00 0.000000e+00
 2.881356e-01 1.000000e+00 0.000000e+00
 2.711864e-01 1.000000e+00 0.000000e+00
 2.542373e-01 1.000000e+00 0.000000e+00
 2.372881e-01 1.000000e+00 0.000000e+00
 2.203390e-01 1.000000e+00 0.000000e+00
 2.033898e-01 1.000000e+00 0.000000e+00
 1.864407e-01 1.000000e+00 0.000000e+00
 1.694915e-01 1.000000e+00 0.000000e+00
 1.525424e-01 1.000000e+00 0.000000e+00
 1.355932e-01 1.000000e+00 0.000000e+00
 1.186441e-01 1.000000e+00 0.000000e+00
 1.016949e-01 1.000000e+00 0.000000e+00
 8.474576e-02 1.000000e+00 0.000000e+00
 6.779661e-02 1.000000e+00 0.000000e+00
 5.084746e-02 1.000000e+00 0.000000e+00
 3.389831e-02 1.000000e+00 0.000000e+00
 1.694915e-02 1.000000e+00 0.000000e+00
 0.000000e+00 9.830508e-01 0.000000e+00
 0.000000e+00 9.661017e-01 0.000000e+00
 0.000000e+00 9.491525e-01 0.000000e+00
 0.000000e+00 9.322034e-01 0.000000e+00
 0.000000e+00 9.152542e-01 0.000000e+00
 0.000000e+00 8.983051e-01 0.000000e+00
 0.000000e+00 8.813559e-01 0.000000e+00
 0.000000e+00 8.644068e-01 0.000000e+00
 0.000000e+00 8.474576e-01 0.000000e+00
 0.000000e+00 8.305085e-01 0.000000e+00
 0.000000e+00 8.135593e-01 0.000000e+00
 0.000000e+00 7.966102e-01 0.000000e+00
 0.000000e+00 7.796610e-01 0.000000e+00
 0.000000e+00 7.627119e-01 0.000000e+00
 0.000000e+00 7.457627e-01 0.000000e+00
 0.000000e+00 7.288136e-01 0.000000e+00
 0.000000e+00 7.118644e-01 0.000000e+00
 0.000000e+00 6.949153e-01 0.000000e+00
 0.000000e+00 6.779661e-01 0.000000e+00
 0.000000e+00 6.610169e-01 0.000000e+00
 0.000000e+00 6.440678e-01 0.000000e+00
 0.000000e+00 6.271186e-01 0.000000e+00
 0.000000e+00 6.101695e-01 0.000000e+00
 0.000000e+00 5.932203e-01 0.000000e+00
 0.000000e+00 5.762712e-01 0.000000e+00
 0.000000e+00 5.593220e-01 0.000000e+00
 0.000000e+00 5.423729e-01 0.000000e+00
 0.000000e+00 5.254237e-01 0.000000e+00
 0.000000e+00 5.084746e-01 0.000000e+00
 0.000000e+00 4.915254e-01 0.000000e+00
 0.000000e+00 4.745763e-01 0.000000e+00
 0.000000e+00 4.576271e-01 0.000000e+00
 0.000000e+00 4.406780e-01 0.000000e+00
 0.000000e+00 4.237288e-01 0.000000e+00
 0.000000e+00 4.067797e-01 0.000000e+00
 0.000000e+00 3.898305e-01 0.000000e+00
 0.000000e+00 3.728814e-01 0.000000e+00
 0.000000e+00 3.559322e-01 0.000000e+00
 0.000000e+00 3.389831e-01 0.000000e+00
 0.000000e+00 3.220339e-01 0.000000e+00
 0.000000e+00 3.050847e-01 0.000000e+00
 0.000000e+00 2.881356e-01 0.000000e+00
 0.000000e+00 2.711864e-01 0.000000e+00
 0.000000e+00 2.542373e-01 0.000000e+00
 0.000000e+00 2.372881e-01 0.000000e+00
 0.000000e+00 2.203390e-01 0.000000e+00
 0.000000e+00 2.033898e-01 0.000000e+00
 0.000000e+00 1.864407e-01 0.000000e+00
 0.000000e+00 1.694915e-01 0.000000e+00
 0.000000e+00 1.525424e-01 0.000000e+00
 0.000000e+00 1.355932e-01 0.000000e+00
 0.000000e+00 1.186441e-01 0.000000e+00
 0.000000e+00 1.016949e-01 0.000000e+00
 0.000000e+00 8.474576e-02 0.000000e+00
 0.000000e+00 6.779661e-02 0.000000e+00
 0.000000e+00 5.084746e-02 0.000000e+00
 0.000000e+00 3.389831e-02 0.000000e+00
 0.000000e+00 1.694915e-02 0.000000e+00
 5.005028e-01 4.998391e-01 0.000000e+00
 7.071661e-01 2.918712e-01 0.000000e+00
 7.058461e-01 7.075282e-01 0.000000e+00
 2.933884e-01 7.073367e-01 0.000000e+00
 2.938885e-01 2.941144e-01 0.000000e+00
 4.999703e-01 7.791089e-01 0.000000e+00
 5.001569e-01 2.194803e-01 0.000000e+00
 2.181991e-01 4.983680e-01 0.000000e+00
[...]
<PointData Scalars="press" Vectors="vel">
<DataArray Name="press" type="Float64" NumberOfComponents="1" format="ascii">
 2.541159e+06
 2.443573e+06
 -2.452986e+06
 -2.694603e+06
 2.546999e+06
 2.535205e+06
 2.540792e+06
 2.529825e+06
 2.533109e+06
 2.531801e+06
 2.522829e+06
 2.519300e+06
 2.515816e+06
 2.513568e+06
 2.507903e+06
 2.503863e+06
 2.498620e+06
 2.495164e+06
 2.483727e+06
 2.487074e+06
 2.476312e+06
 2.467719e+06
 2.461459e+06
 2.447227e+06
 2.429036e+06
 2.408531e+06
 2.389255e+06
 2.400007e+06
 2.418030e+06
 2.432186e+06
 2.444923e+06
 2.457928e+06
 2.467995e+06
 2.478554e+06
 2.487679e+06
 2.499867e+06
 2.499339e+06
 2.508780e+06
 2.516904e+06
 2.516162e+06
 2.518916e+06
 2.518169e+06
 2.518145e+06
 2.514757e+06
 2.512688e+06
 2.512011e+06
 2.511234e+06
 2.509991e+06
 2.508461e+06
 2.500299e+06
 2.504376e+06
 2.503255e+06
 2.503261e+06
 2.499507e+06
 2.498712e+06
 2.498230e+06
 2.503911e+06
 2.503450e+06
 2.496990e+06
 2.497821e+06
 2.477727e+06
 2.460692e+06
 2.421649e+06
 2.364086e+06
 2.284126e+06
 2.198379e+06
 2.110232e+06
 2.020979e+06
 1.931436e+06
 1.842545e+06
 1.754100e+06
 1.666726e+06
 1.579860e+06
 1.494247e+06
 1.409348e+06
 1.325007e+06
 1.240551e+06
 1.156474e+06
 1.072087e+06
 9.878015e+05
 9.031264e+05
 8.182099e+05
 7.331177e+05
 6.475628e+05
 5.620158e+05
 4.758970e+05
 3.898281e+05
 3.032429e+05
 2.167488e+05
 1.298574e+05
 4.288353e+04
 -4.400453e+04
 -1.311834e+05
 -2.181934e+05
 -3.052610e+05
 -3.922805e+05
 -4.794511e+05
 -5.664286e+05
 -6.532376e+05
 -7.405135e+05
 -8.272051e+05
 -9.140955e+05
 -1.000693e+06
 -1.087183e+06
 -1.173558e+06
 -1.259746e+06
 -1.345585e+06
 -1.431339e+06
 -1.516716e+06
 -1.601678e+06
 -1.686305e+06
 -1.769811e+06
 -1.852351e+06
 -1.933000e+06
 -2.011400e+06
 -2.087310e+06
 -2.160440e+06
 -2.229911e+06
 -2.299135e+06
 -2.360312e+06
 -2.447629e+06
 -2.462131e+06
 -2.459142e+06
 -2.474405e+06
 -2.474793e+06
 -2.479237e+06
 -2.491876e+06
 -2.498609e+06
 -2.504050e+06
 -2.507441e+06
 -2.512997e+06
 -2.516766e+06
 -2.524850e+06
 -2.518693e+06
 -2.519866e+06
 -2.522793e+06
 -2.526764e+06
 -2.532813e+06
 -2.537193e+06
 -2.540105e+06
 -2.545355e+06
 -2.547909e+06
 -2.552354e+06
 -2.554239e+06
 -2.556820e+06
 -2.558746e+06
 -2.561621e+06
 -2.561913e+06
 -2.567290e+06
 -2.570020e+06
 -2.571838e+06
 -2.574162e+06
 -2.573660e+06
 -2.568055e+06
 -2.564246e+06
 -2.565839e+06
 -2.557818e+06
 -2.555920e+06
 -2.556663e+06
 -2.554462e+06
 -2.557605e+06
 -2.555715e+06
 -2.550858e+06
 -2.559048e+06
 -2.552323e+06
 -2.553683e+06
 -2.553571e+06
 -2.555215e+06
 -2.555859e+06
 -2.561159e+06
 -2.565574e+06
 -2.571654e+06
 -2.574393e+06
 -2.586710e+06
 -2.606064e+06
 -2.618983e+06
 -2.649996e+06
 -2.675954e+06
 -2.545260e+06
 -2.424754e+06
 -2.330378e+06
 -2.241045e+06
 -2.154916e+06
 -2.066961e+06
 -1.974490e+06
 -1.878190e+06
 -1.780477e+06
 -1.684605e+06
 -1.590303e+06
 -1.498398e+06
 -1.408852e+06
 -1.321423e+06
 -1.236081e+06
 -1.151748e+06
 -1.068720e+06
 -9.855728e+05
 -9.020710e+05
 -8.167162e+05
 -7.287989e+05
 -6.380645e+05
 -5.449812e+05
 -4.510860e+05
 -3.595812e+05
 -2.715897e+05
 -1.861756e+05
 -1.016058e+05
 -1.681588e+04
 6.821818e+04
 1.535074e+05
 2.389948e+05
 3.246595e+05
 4.103073e+05
 4.957539e+05
 5.810138e+05
 6.659337e+05
 7.503174e+05
 8.344912e+05
 9.182001e+05
 1.001734e+06
 1.085060e+06
 1.168287e+06
 1.251562e+06
 1.334879e+06
 1.418308e+06
 1.501955e+06
 1.585862e+06
 1.670068e+06
 1.754819e+06
 1.840167e+06
 1.926438e+06
 2.013959e+06
 2.102894e+06
 2.193553e+06
 2.286696e+06
 2.379996e+06
 2.478955e+06
 1.722331e+04
 1.055505e+06
 -1.064594e+06
 -1.070299e+06
 1.049964e+06
 -1.414298e+06
 1.415510e+06
 -4.374852e+03
 7.018976e+03
 1.661454e+06
 -1.681635e+06
 1.653321e+06
 -1.665706e+06
 7.092888e+05
 -3.553256e+05
 -3.213181e+05
 7.448701e+05
 -1.747874e+06
 7.238458e+05
 -7.065451e+05
 -1.761437e+06
 -7.202348e+05
 1.751450e+06
 1.733485e+06
 4.156610e+05
 -7.103439e+05
 3.170473e+05
 9.945369e+05
 -1.005477e+06
 -1.967114e+06
 1.886815e+05
 1.954965e+06
 -1.872019e+05
 -1.130466e+06
 5.557682e+05
 1.973186e+06
 -1.228249e+06
 1.212323e+06
 -1.990697e+06
 -1.984609e+06
 -1.204846e+06
 1.977308e+06
 1.221653e+06
 -5.377199e+05
 -5.256753e+05
 1.229482e+06
 4.844662e+05
 -2.031481e+06
 2.014038e+06
 2.015898e+06
 -2.063240e+06
 5.987684e+05
 2.022859e+06
 -2.041701e+06
 -3.010521e+05
 3.156174e+05
 1.494929e+06
 1.217286e+06
 -1.502425e+06
 -1.515919e+06
 1.126898e+06
 -1.135974e+06
 1.525688e+06
 -1.144932e+06
 8.284677e+04
 -3.867785e+05
 2.695222e+05
 4.412726e+04
 9.753338e+05
 7.336233e+05
 1.328056e+06
 -7.693871e+05
 -1.323341e+06
 -2.134260e+06
 -2.119285e+06
 1.602182e+06
 1.610971e+06
 2.102398e+06
 2.108805e+06
 -1.618028e+06
 -1.649081e+06
 -7.543411e+05
 -6.678656e+04
 -5.539134e+05
 2.130880e+06
 -2.116964e+06
 5.802173e+05
 -3.061023e+05
 2.138824e+06
 -8.350199e+05
 -2.128810e+06
 8.407483e+05
 -1.364669e+06
 -1.507141e+06
 -1.641809e+06
 -3.466218e+05
 3.379418e+05
 1.631364e+06
 1.529538e+06
 4.072724e+05
 -3.602342e+05
 7.799366e+05
 8.616249e+05
 -1.062767e+06
 1.403468e+06
 -9.253630e+05
 2.158221e+06
 -2.181424e+06
 9.228674e+05
 -1.006553e+05
 2.582023e+05
 -5.879110e+05
 -8.633493e+05
 -7.371629e+05
 -1.309530e+06
 -2.091103e+05
 -8.773761e+05
 6.607750e+05
 2.193873e+06
 -2.199697e+06
 -1.055660e+04
 2.981479e+04
 -5.826582e+05
 -3.236740e+04
 2.206997e+04
 1.720811e+06
 -1.726340e+06
 1.249415e+06
 -1.754678e+06
 1.725930e+06
 1.037728e+06
 -1.741590e+06
 -1.384872e+06
 1.714111e+06
 -1.372975e+06
 1.354575e+06
 8.996370e+05
 1.196719e+06
 1.025186e+06
 -2.220473e+06
 5.575450e+05
 -5.407548e+05
 2.223195e+06
 4.987367e+05
 9.895147e+03
 -5.449432e+05
 2.042393e+05
 2.844059e+05
 2.237145e+06
 -2.212215e+06
 -2.288386e+06
 2.238074e+06
 -1.188231e+06
 2.247263e+05
 3.773395e+05
 3.016025e+05
 -2.814164e+05
 2.229518e+06
 -2.233906e+06
 1.738631e+06
 -1.740289e+06
 1.373231e+06
 -1.756513e+06
 2.231597e+06
 -1.363670e+06
 -2.232059e+06
 -2.237707e+06
 -1.331495e+06
 1.357595e+06
 2.233768e+06
 1.341876e+06
 -1.810041e+06
 1.001587e+06
 -1.011365e+06
 1.786416e+06
 -9.936150e+05
 -5.166352e+05
 -1.043267e+06
 1.813346e+06
 -8.808464e+05
 7.727646e+05
 -2.268568e+05
 4.706004e+05
 -1.069333e+06
 -2.238199e+06
 -2.268781e+06
 -1.867389e+06
 1.842370e+06
 -1.905278e+06
 1.839305e+06
 2.248198e+06
 2.249365e+06
 7.068900e+05
 -5.839124e+05
 5.499925e+05
 9.629097e+05
 1.498251e+06
 -4.564521e+05
 -7.771758e+05
 -1.322420e+06
 1.224731e+06
 -1.238078e+06
 1.274802e+06
 -1.241181e+06
 -6.139367e+05
 1.560483e+05
 1.040630e+06
 1.078137e+06
 -2.253136e+06
 2.262492e+06
 -1.070776e+06
 -1.907442e+06
 1.894330e+06
 1.899342e+06
 -1.928850e+06
 -7.880332e+05
 5.816800e+05
 1.469442e+06
 -1.479624e+06
 1.478809e+06
 -1.495083e+06
 -2.434565e+05
 7.876149e+05
 7.945186e+05
 -1.540104e+06
 1.949268e+06
 -1.956243e+06
 -5.565840e+05
 5.693044e+05
 1.544046e+06
 -3.409306e+05
 3.955777e+05
 1.309370e+06
 -1.902207e+05
 -1.545314e+06
 6.853232e+05
 4.829006e+05
 8.784494e+05
 -1.756739e+05
 -8.788945e+05
 -8.821228e+05
 6.773055e+04
 -2.266902e+06
 2.279250e+06
 -2.435813e+05
 2.713022e+05
 -1.541915e+06
 1.529506e+06
 -1.564617e+06
 1.870705e+06
 -1.973016e+06
 -6.456287e+04
 1.959230e+06
 7.291762e+04
 -1.682610e+06
 -6.581591e+04
 3.592230e+05
 -1.943318e+06
 9.021480e+05
 1.392639e+06
 -4.949607e+05
 9.267251e+05
 -7.561096e+05
 1.987242e+06
 -4.731295e+04
 1.695622e+06
 -1.331422e+06
 -2.291917e+06
 1.128554e+06
 1.226407e+06
 -1.120000e+06
 2.278455e+06
 -1.537259e+06
 2.282438e+05
 -3.471458e+05
 1.535577e+06
 1.576077e+06
 2.472657e+05
 7.247432e+05
 -2.294892e+06
 -7.187314e+05
 2.286992e+06
 -3.119932e+05
 6.001038e+05
 -1.898161e+06
 -1.911098e+06
 1.888812e+06
 1.275259e+06
 -1.212907e+06
 1.052751e+06
 1.800516e+06
 1.792083e+06
 -1.827549e+06
 -5.451774e+05
 -1.802218e+06
 -7.968679e+05
 1.955490e+06
 -1.889239e+06
 -8.912963e+05
 -1.596386e+06
 -1.777008e+05
 1.196535e+06
 1.015960e+06
 7.635367e+05
 -9.159907e+05
 2.317356e+06
 -2.327020e+06
 1.535424e+06
 1.544688e+06
 -2.302806e+06
 2.326755e+06
 -1.552328e+06
 -1.566236e+06
 1.414023e+05
 3.728646e+04
 -1.318457e+06
 2.115375e+05
 1.025279e+06
 -4.043090e+05
 -1.389967e+05
 7.452843e+05
 -7.365557e+05
 -2.302310e+06
 2.326214e+06
 1.426349e+06
 -8.299370e+05
 8.375192e+05
 2.495109e+05
 -2.440404e+05
 1.824059e+06
 -1.843152e+06
 6.175295e+05
 -5.357097e+05
 4.899844e+05
 -2.306843e+06
 -4.754828e+05
 2.302015e+06
 -1.719489e+05
 1.440943e+04
 -1.762356e+06
 1.745558e+06
 -5.081274e+05
 5.147304e+05
 -1.393124e+06
 1.230296e+06
 -1.414672e+06
 -1.442636e+06
 1.403262e+06
 -4.029092e+05
 8.277448e+05
 -2.043571e+06
 2.032757e+06
 -2.051322e+06
 2.244318e+05
 2.033686e+06
 -5.565420e+05
 2.339643e+06
 -1.485437e+06
 2.346019e+06
 -2.038014e+06
 -2.004943e+06
 -1.931943e+06
 -2.104669e+06
 -2.297403e+06
 -2.356968e+06
 -1.016422e+06
 1.990002e+06
 2.052316e+06
 -9.464270e+05
 2.041060e+06
 -1.242861e+06
 -9.360882e+05
 6.919621e+05
 1.998623e+06
 1.528054e+06
 -1.313559e+06
 3.990240e+05
 -9.844294e+05
 9.955757e+05
 8.829635e+05
 -8.914397e+05
 -3.634212e+05
 -8.356473e+05
 -1.496007e+05
 1.476975e+05
 1.546492e+06
 1.929173e+06
 -2.039108e+06
 1.434527e+06
 4.642140e+05
 7.387318e+05
 -2.335990e+05
 -1.173325e+06
 9.489162e+05
 8.478693e+05
 4.990349e+05
 -1.052095e+06
 -1.196798e+06
 -1.682083e+05
 -1.062129e+06
 -5.365483e+05
 5.189061e+05
 7.218769e+05
 -2.076353e+06
 -2.316091e+06
 -1.137884e+05
 2.326973e+06
 1.239099e+05
 1.585381e+06
 -4.124616e+05
 1.132436e+06
 1.084586e+05
 3.732031e+05
 -1.314816e+06
 1.447563e+06
 -1.184689e+06
 -1.175876e+06
 1.784477e+06
 1.164160e+06
 -1.132183e+06
 -1.303459e+06
 1.292404e+06
 -1.708904e+06
 1.783749e+06
 -1.687988e+06
 1.204487e+06
 1.948784e+06
 -2.034309e+06
 1.044454e+06
 7.461819e+04
 1.951084e+05
 1.153380e+06
 -5.707456e+05
 5.948119e+05
 -1.516059e+06
 1.114436e+06
 -6.845670e+05
 5.611717e+05
 -1.564762e+06
 -9.624310e+05
 2.347842e+06
 9.647137e+05
 -2.341726e+06
 8.913336e+05
 -3.503699e+05
 2.366844e+06
 -2.333284e+06
 9.178708e+05
 -9.137092e+05
 -1.480782e+06
 7.523990e+05
 1.078237e+06
 1.579672e+06
 -7.128219e+05
 -2.074344e+06
 2.070595e+06
 -2.095829e+06
 2.077743e+06
 2.127716e+06
 1.497167e+05
 -2.141688e+06
 -1.348395e+05
 -1.067683e+06
 -1.762683e+05
 -7.083430e+05
 1.375979e+06
 8.291457e+05
 -2.180886e+05
 4.298192e+05
 -2.338545e+06
 -4.115497e+05
 2.361508e+06
 2.427103e+05
 -7.233779e+05
 4.341249e+05
 6.314300e+05
 1.719163e+06
 1.714326e+06
 -2.372487e+06
 2.367833e+06
 -1.756689e+06
 -1.713985e+06
 -2.336729e+06
 1.704857e+06
 2.379801e+06
 -1.735900e+06
 -1.738903e+06
 3.274428e+05
 -1.652977e+06
 -9.240330e+05
 2.367454e+06
 1.220327e+06
 -2.332123e+06
 -1.211962e+06
 1.401426e+06
 -1.593848e+06
 -7.130134e+05
 1.735173e+06
 -2.305261e+06
 -2.408443e+06
 2.371014e+06
 2.379324e+06
 2.198218e+05
 -6.707132e+05
 6.705271e+05
 -2.086461e+06
 2.097939e+06
 -8.411917e+05
 2.107005e+06
 -1.134490e+06
 1.182245e+05
 2.362105e+06
 -9.819051e+04
 1.661545e+06
 -2.337061e+06
 -9.427989e+05
 1.880625e+06
 8.777335e+05
 -1.356335e+06
 -1.381157e+06
 1.347389e+06
 -6.679103e+05
 -6.221071e+05
 -2.158759e+06
 6.363326e+05
 1.206219e+06
 -6.158014e+05
 -1.185052e+06
 -2.158245e+06
 2.150107e+06
 1.203740e+06
 1.659499e+05
 -8.430321e+05
 1.849281e+06
 -3.639689e+05
 4.065283e+04
 1.082576e+06
 -3.989851e+05
 4.081690e+05
 1.881413e+06
 -1.905472e+06
 -1.231527e+06
 4.556807e+05
 -6.033271e+05
 7.103655e+05
 6.223860e+05
 -1.179860e+06
 -1.808662e+06
 -6.736214e+05
 5.068098e+05
 -1.380479e+06
 7.552322e+05
 2.134123e+06
 -2.146003e+06
 -1.676662e+05
 1.857500e+05
 6.917770e+04
 -7.769162e+05
 1.380550e+06
 -7.250327e+05
 -2.169891e+06
 -3.749004e+05
 3.917329e+05
 2.182171e+06
 -1.646287e+06
 1.507281e+06
 -1.502674e+06
 3.969351e+05
 1.628603e+06
 -1.536857e+06
 2.179360e+05
 -3.629374e+05
 5.052916e+05
 -1.894677e+06
 1.780790e+06
 -3.706946e+05
 9.297418e+05
 1.627737e+06
 1.570934e+06
 -1.631091e+06
 -1.580883e+06
 1.358631e+06
 1.508507e+06
 -1.652460e+06
 -1.595692e+06
 7.297939e+05
 1.488404e+05
 1.259182e+06
 -2.163413e+06
 2.076100e+06
 -2.363686e+06
 -1.269494e+06
 2.076220e+06
 -2.211062e+06
 -1.211381e+06
 2.368086e+06
 -1.695581e+06
 1.055317e+06
 1.624061e+06
 1.812847e+06
 2.114958e+06
 -1.365243e+06
 -4.623869e+05
 -1.924944e+06
 4.340046e+04
 -5.326192e+04
 1.883898e+06
 -8.824233e+05
 -1.914127e+06
 -1.905494e+06
 1.632507e+06
 1.148870e+06
 -1.844152e+06
 -3.701599e+05
 6.336436e+05
 4.136016e+05
 -4.286435e+05
 1.366125e+06
 -4.543470e+05
 -2.351947e+06
 2.385485e+06
 -5.866846e+05
 6.013271e+05
 -2.006083e+06
 6.492308e+05
 2.175063e+06
 -2.046202e+06
 -6.468761e+04
 2.173566e+06
 -7.172080e+05
 2.141429e+06
 -1.780273e+06
 8.903571e+05
 1.125219e+06
 1.638935e+06
 -1.094657e+05
 1.373104e+06
 -7.503132e+05
 -1.391259e+06
 1.321659e+06
 -1.385611e+06
 -1.603815e+06
 6.438329e+05
 1.311311e+05
 1.350974e+06
 -1.837990e+06
 8.557776e+05
 3.797652e+05
 1.697499e+06
 8.662733e+05
 1.012946e+06
 -1.207989e+06
 1.211238e+06
 1.086710e+06
 1.831204e+06
 -4.148424e+05
 -1.074336e+06
 -1.017947e+06
 -8.568652e+05
 -1.026032e+06
 -5.098112e+05
 -1.402726e+06
 -1.486571e+05
 1.189749e+06
 5.442471e+05
 -6.450465e+05
 3.516380e+05
 -8.216956e+03
 -2.361917e+06
 2.361452e+06
 -2.347685e+06
 -3.248235e+05
 2.378089e+06
 1.402544e+06
 8.475801e+04
 1.413086e+06
 -1.401606e+06
 -2.373945e+06
 -1.431075e+06
 1.373062e+06
 2.392552e+06
 3.710937e+05
 1.131123e+06
 -1.143939e+06
 -1.128786e+06
 2.993631e+05
 -7.217926e+05
 1.754043e+06
 -1.797622e+06
 -1.764948e+06
 1.750656e+06
 2.401099e+06
 -1.183993e+05
 2.400399e+06
 2.197816e+06
 -2.417719e+06
 -2.241322e+06
 -2.335495e+06
 2.196068e+06
 -2.169342e+06
 1.088081e+06
 5.198858e+05
 -2.251084e+05
 -6.822360e+05
 -1.190168e+06
 -1.079513e+05
 -2.154907e+06
 1.259540e+06
 1.393803e+06
 3.128575e+05
 4.031412e+05
 -1.271396e+06
 -5.436924e+05
 -1.285842e+06
 -1.053308e+06
 -9.133257e+05
 5.446287e+04
 -7.933712e+05
 1.372249e+06
 1.515343e+06
 2.155913e+06
 6.267636e+05
 1.644472e+06
 -6.922959e+05
 1.357598e+06
 8.544381e+05
 1.175524e+06
 -1.858290e+05
 1.692192e+06
 -1.276691e+06
 1.794652e+05
 2.105952e+06
 -6.158429e+05
 4.324156e+05
 -6.890806e+05
 7.003007e+05
 1.463117e+06
 7.474828e+05
 2.394102e+06
 -2.397243e+06
 1.472865e+06
 -1.912133e+06
 9.852377e+05
 1.645573e+06
 1.903915e+06
 -1.685045e+06
 5.733432e+04
 -2.347567e+06
 1.899343e+06
 -1.959614e+06
 -1.663586e+06
 2.184656e+06
 2.403254e+06
 -1.498461e+06
 -2.201601e+06
 -2.189569e+06
 -1.089746e+06
 -1.511635e+06
 1.809907e+06
 2.184439e+06
 -2.121408e+04
 1.479341e+06
 -1.441960e+06
 9.090488e+05
 -9.941269e+04
 1.963855e+06
 1.895608e+06
 6.459775e+05
 1.899655e+06
 8.978873e+05
 -9.971896e+05
 -9.903490e+05
 -2.217020e+06
 -2.242566e+06
 2.221556e+06
 1.254807e+06
 -1.667749e+06
 2.212931e+06
 -1.831960e+06
 -1.784465e+06
 2.655522e+05
 4.312203e+05
 -1.305673e+06
 -5.163511e+04
 8.359366e+05
 7.738950e+05
 -6.011860e+05
 2.349165e+06
 1.799173e+06
 -1.828934e+06
 -1.810853e+06
 -2.371818e+06
 1.794960e+06
 6.219934e+05
 1.573721e+06
 -7.583644e+05
 -1.089066e+06
 -1.896383e+06
 -4.260220e+05
 1.061155e+06
 -1.051992e+06
 -3.716656e+05
 -1.901336e+06
 -8.847317e+05
 1.315569e+06
 1.663889e+06
 -2.099589e+06
 -5.930876e+05
 -1.922745e+05
 5.636298e+05
 -1.070926e+06
 -1.551390e+06
 -3.731274e+05
 -3.057606e+05
 -2.562366e+05
 1.613117e+06
 -1.889121e+05
 -4.645816e+05
 2.404784e+05
 6.416933e+05
 9.768984e+05
 -9.675953e+05
 -4.775357e+05
 -1.986942e+06
 -1.994374e+06
 1.973508e+06
 -2.172240e+06
 1.066137e+06
 1.924255e+06
 1.919585e+06
 -1.928180e+06
 -1.952753e+06
 -1.139858e+06
 -5.146682e+05
 7.503265e+05
 6.093680e+05
 -1.460830e+06
 2.043298e+06
 -2.086810e+06
 1.253698e+06
 -4.976248e+05
 2.089133e+06
 4.617302e+05
 -9.760397e+05
 2.783541e+05
 -2.912024e+05
 -1.633177e+06
 -1.897089e+06
 -1.927726e+06
 2.006317e+06
 -2.021152e+06
 6.093533e+04
 -2.170109e+06
 -5.465855e+04
 1.473907e+06
 1.558681e+06
 1.229636e+04
 -4.574425e+05
 1.051598e+06
 2.406034e+06
 -1.544170e+06
 1.521819e+06
 -2.378143e+06
 -1.044325e+06
 -8.166183e+05
 3.515073e+05
 -2.362791e+06
 2.374266e+06
 8.245168e+05
 -5.513888e+05
 1.665676e+06
 1.511173e+06
 -9.273349e+05
 -1.417820e+06
 1.855920e+06
 5.305896e+05
 1.023959e+06
 -8.856409e+05
 2.031060e+06
 -1.716760e+06
 3.522678e+05
 1.664873e+06
 -1.686528e+06
 1.671116e+06
 -1.348839e+06
 -6.392096e+04
 -1.670517e+06
 1.863469e+06
 -1.172806e+06
 1.392660e+06
 1.894040e+06
 -1.838423e+06
 1.144937e+06
 -8.147730e+05
 1.822762e+06
 -1.107286e+05
 9.937006e+05
 1.128776e+05
 -2.193241e+06
 -1.494756e+06
 -9.320164e+05
 -2.155657e+06
 4.320754e+05
 -1.182962e+06
 2.860422e+05
 1.250087e+05
 9.234528e+05
 -1.623299e+06
 9.539339e+05
 -1.773954e+06
 -3.651150e+05
 1.756760e+06
 -1.911667e+05
 3.669574e+05
 -5.996477e+05
 6.108797e+05
 2.237920e+06
 -2.251942e+06
 4.045201e+05
 -2.363487e+05
 1.285636e+06
 -1.189366e+06
 1.753179e+06
 -9.117764e+05
 -1.759095e+06
 1.262187e+06
 -1.776891e+06
 8.518137e+05
 -1.194519e+06
 -9.204110e+04
 -2.988613e+05
 1.375204e+05
 -3.740497e+04
 1.780171e+06
 1.465735e+06
 -1.575777e+06
 1.343502e+05
 -1.497533e+06
 6.178617e+05
 -1.967799e+06
 1.874476e+06
 -2.012372e+05
 2.115149e+05
 9.866399e+05
 1.959398e+06
 7.292669e+05
 1.511144e+06
 1.666437e+06
 2.017527e+06
 1.276880e+06
 -2.000926e+06
 -1.634371e+06
 -4.581468e+05
 1.708764e+06
 2.394531e+06
 -1.052776e+06
 -2.380244e+06
 3.278492e+04
 -1.354272e+06
 8.788621e+05
 -1.268875e+06
 -1.176686e+04
 -1.280690e+06
 -1.850477e+06
 1.255424e+06
 -4.831191e+05
 -9.630689e+05
 9.912126e+03
 9.722600e+05
 -1.453122e+06
 3.420964e+05
 7.888725e+05
 1.336610e+06
 -3.948955e+05
 2.612656e+05
 -2.389912e+06
 2.418726e+06
 -2.813486e+05
 -1.808133e+06
 1.310194e+06
 -2.212953e+06
 -1.415714e+06
 1.073997e+05
 8.927979e+05
 -2.382644e+06
 1.056614e+06
 -1.397748e+06
 -1.057569e+06
 1.387127e+06
 2.388772e+06
 2.222380e+06
 -9.576303e+05
 1.147544e+06
 1.527653e+06
 3.613337e+05
 -1.569359e+06
 -1.542276e+06
 -7.584168e+05
 7.646507e+05
 2.009070e+06
 6.845969e+05
 -2.854756e+05
 -2.015161e+06
 -2.025016e+06
 2.003649e+06
 -6.527047e+05
 1.663745e+06
 -4.399175e+04
 2.093698e+06
 1.454862e+05
 3.938644e+05
 2.093373e+06
 2.257116e+06
 8.515544e+05
 2.970087e+05
 -8.439881e+05
 2.265278e+05
 1.204170e+06
 -1.869128e+06
 9.612859e+05
 -2.063100e+06
 -2.387632e+05
 2.756986e+05
 -5.127575e+05
 1.632381e+06
 -1.232943e+06
 2.225613e+06
 1.541721e+06
 1.013225e+06
 -1.036963e+06
 2.221054e+06
 2.199007e+06
 1.635298e+06
 2.222875e+06
 -2.111162e+06
 -2.143996e+06
 -2.088804e+06
 -1.917669e+06
 -6.638421e+04
 2.075925e+06
 8.156404e+04
 1.163411e+06
 -5.466761e+04
 -1.436285e+06
 1.963119e+06
 1.984693e+06
 4.853220e+05
 1.605506e+06
 -2.233652e+06
 6.979033e+05
 -1.637378e+06
 8.446567e+05
 -8.395122e+05
 2.385937e+06
 2.394184e+05
 2.029712e+06
 1.069227e+06
 -2.383357e+06
 -2.232915e+05
 -2.099175e+05
 -1.943589e+05
 -2.066540e+05
 9.508352e+05
 -1.279950e+06
 -6.442749e+05
 -2.812699e+05
 5.158331e+05
 1.267162e+06
 -1.410447e+06
 -2.090968e+06
 7.916197e+04
 -2.073598e+06
 -9.589323e+05
 9.424898e+05
 2.268001e+05
 -4.045845e+04
 2.001094e+06
 -8.148436e+05
 5.179145e+05
 7.416862e+05
 -2.141839e+06
 -8.074608e+05
 6.789453e+05
 -6.686276e+05
 9.825286e+05
 -1.260192e+06
 -2.221242e+06
 -1.306422e+06
 2.218476e+06
 1.292956e+06
 1.100598e+06
 1.103767e+06
 -1.084986e+06
 -2.137758e+06
 2.127566e+06
 -1.469374e+06
 -1.296591e+06
 1.287759e+06
 1.158876e+06
 2.433345e+06
 6.100102e+05
 -8.232914e+05
 -2.382976e+06
 8.253673e+05
 2.509511e+05
 -5.272089e+05
 1.699485e+06
 -1.409926e+06
 -1.638369e+06
 -1.022291e+06
 -3.440813e+05
 -8.891406e+05
 1.452990e+06
 8.974405e+05
 -1.313012e+06
 7.062725e+05
 -2.138157e+06
 -7.308354e+05
 -3.104786e+05
 -1.463817e+06
 5.901628e+05
 -6.133129e+05
 -2.039289e+06
 1.110863e+06
 -1.674403e+06
 -2.412460e+06
 1.614774e+06
 -2.374943e+06
 2.429787e+06
 1.608637e+06
 2.440047e+06
 -1.631894e+06
 -2.342677e+05
 -1.623340e+06
 1.860912e+06