<?xml version="1.0"?>
<VTKFile type="UnstructuredGrid" version="0.1">
<UnstructuredGrid>
<Piece NumberOfPoints="3830" NumberOfCells="7422">
<Points>
<DataArray NumberOfComponents="3" type="Float64" format="ascii">
 0.000000e+00 0.000000e+00 0.000000e+00
 1.000000e+00 0.000000e+00 0.000000e+00
 1.000000e+00 1.000000e+00 0.000000e+00
 0.000000e+00 1.000000e+00 0.000000e+00
 1.694915e-02 0.000000e+00 0.000000e+00
 3.389831e-02 0.000000e+00 0.000000e+00
 5.084746e-02 0.000000e+00 0.000000e+00
 6.779661e-02 0.000000e+00 0.000000e+00
 8.474576e-02 0.000000e+00 0.000000e+00
 1.016949e-01 0.000000e+00 0.000000e+00
 1.186441e-01 0.000000e+00 0.000000e+00
 1.355932e-01 0.000000e+00 0.000000e+00
 1.525424e-01 0.000000e+00 0.000000e+00
 1.694915e-01 0.000000e+00 0.000000e+00
 1.864407e-01 0.000000e+00 0.000000e+00
 2.033898e-01 0.000000e+00 0.000000e+00
 2.203390e-01 0.000000e+00 0.000000e+00
 2.372881e-01 0.000000e+00 0.000000e+00
 2.542373e-01 0.000000e+00 0.000000e+00
 2.711864e-01 0.000000e+00 0.000000e+00
 2.881356e-01 0.000000e+00 0.000000e+00
 3.050847e-01 0.000000e+00 0.000000e+00
 3.220339e-01 0.000000e+00 0.000000e+00
 3.389831e-01 0.000000e+00 0.000000e+00
 3.559322e-01 0.000000e+00 0.000000e+00
 3.728814e-01 0.000000e+00 0.000000e+00
 3.898305e-01 0.000000e+00 0.000000e+00
 4.067797e-01 0.000000e+00 0.000000e+00
 4.237288e-01 0.000000e+00 0.000000e+00
 4.406780e-01 0.000000e+00 0.000000e+00
 4.576271e-01 0.000000e+00 0.000000e+00
 4.745763e-01 0.000000e+00 0.000000e+00
 4.915254e-01 0.000000e+00 0.000000e+00
 5.084746e-01 0.000000e+00 0.000000e+00
 5.254237e-01 0.000000e+00 0.000000e+00
 5.423729e-01 0.000000e+00 0.000000e+00
 5.593220e-01 0.000000e+00 0.000000e+00
 5.762712e-01 0.000000e+00 0.000000e+00
 5.932203e-01 0.000000e+00 0.000000e+00
 6.101695e-01 0.000000e+00 0.000000e+00
 6.271186e-01 0.000000e+00 0.000000e+00
 6.440678e-01 0.000000e+00 0.000000e+00
 6.610169e-01 0.000000e+00 0.000000e+00
 6.779661e-01 0.000000e+00 0.000000e+00
 6.949153e-01 0.000000e+00 0.000000e+00
 7.118644e-01 0.000000e+00 0.000000e+00
 7.288136e-01 0.000000e+00 0.000000e+00
 7.457627e-01 0.000000e+00 0.000000e+00
 7.627119e-01 0.000000e+00 0.000000e+00
 7.796610e-01 0.000000e+00 0.000000e+00
 7.966102e-01 0.000000e+00 0.000000e+00
 8.135593e-01 0.000000e+00 0.000000e+00
 8.305085e-01 0.000000e+00 0.000000e+00
 8.474576e-01 0.000000e+00 0.000000e+00
 8.644068e-01 0.000000e+00 0.000000e+00
 8.813559e-01 0.000000e+00 0.000000e+00
 8.983051e-01 0.000000e+00 0.000000e+00
 9.152542e-01 0.000000e+00 0.000000e+00
 9.322034e-01 0.000000e+00 0.000000e+00
 9.491525e-01 0.000000e+00 0.000000e+00
 9.661017e-01 0.000000e+00 0.000000e+00
 9.830508e-01 0.000000e+00 0.000000e+00
 1.000000e+00 1.694915e-02 0.000000e+00
 1.000000e+00 3.389831e-02 0.000000e+00
 1.000000e+00 5.084746e-02 0.000000e+00
 1.000000e+00 6.779661e-02 0.000000e+00
 1.000000e+00 8.474576e-02 0.000000e+00
 1.000000e+00 1.016949e-01 0.000000e+00
 1.000000e+00 1.186441e-01 0.000000e+00
 1.000000e+00 1.355932e-01 0.000000e+00
 1.000000e+00 1.525424e-01 0.000000e+00
 1.000000e+00 1.694915e-01 0.000000e+00
 1.000000e+00 1.864407e-01 0.000000e+00
 1.000000e+00 2.033898e-01 0.000000e+00
 1.000000e+00 2.203390e-01 0.000000e+00
 1.000000e+00 2.372881e-01 0.000000e+00
 1.000000e+00 2.542373e-01 0.000000e+00
 1.000000e+00 2.711864e-01 0.000000e+00
 1.000000e+00 2.881356e-01 0.000000e+00
 1.000000e+00 3.050847e-01 0.000000e+00
 1.000000e+00 3.220339e-01 0.000000e+00
 1.000000e+00 3.389831e-01 0.000000e+00
 1.000000e+00 3.559322e-01 0.000000e+00
 1.000000e+00 3.728814e-01 0.000000e+00
 1.000000e+00 3.898305e-01 0.000000e+00
 1.000000e+00 4.067797e-01 0.000000e+00
 1.000000e+00 4.237288e-01 0.000000e+00
 1.000000e+00 4.406780e-01 0.000000e+00
 1.000000e+00 4.576271e-01 0.000000e+00
 1.000000e+00 4.745763e-01 0.000000e+00
 1.000000e+00 4.915254e-01 0.000000e+00
 1.000000e+00 5.084746e-01 0.000000e+00
 1.000000e+00 5.254237e-01 0.000000e+00
 1.000000e+00 5.423729e-01 0.000000e+00
 1.000000e+00 5.593220e-01 0.000000e+00
 1.000000e+00 5.762712e-01 0.000000e+00
 1.000000e+00 5.932203e-01 0.000000e+00
 1.000000e+00 6.101695e-01 0.000000e+00
 1.000000e+00 6.271186e-01 0.000000e+00
 1.000000e+00 6.440678e-01 0.000000e+00
 1.000000e+00 6.610169e-01 0.000000e+00
 1.000000e+00 6.779661e-01 0.000000e+00
 1.000000e+00 6.949153e-01 0.000000e+00
 1.000000e+00 7.118644e-01 0.000000e+00
 1.000000e+00 7.288136e-01 0.000000e+00
 1.000000e+00 7.457627e-01 0.000000e+00
 1.000000e+00 7.627119e-01 0.000000e+00
 1.000000e+00 7.796610e-01 0.000000e+00
 1.000000e+00 7.966102e-01 0.000000e+00
 1.000000e+00 8.135593e-01 0.000000e+00
 1.000000e+00 8.305085e-01 0.000000e+00
 1.000000e+00 8.474576e-01 0.000000e+00
 1.000000e+00 8.644068e-01 0.000000e+00
 1.000000e+00 8.813559e-01 0.000000e+00
 1.000000e+00 8.983051e-01 0.000000e+00
 1.000000e+00 9.152542e-01 0.000000e+00
 1.000000e+00 9.322034e-01 0.000000e+00
 1.000000e+00 9.491525e-01 0.000000e+00
 1.000000e+00 9.661017e-01 0.000000e+00
 1.000000e+00 9.830508e-01 0.000000e+00
 9.830508e-01 1.000000e+00 0.000000e+00
 9.661017e-01 1.000000e+00 0.000000e+00
 9.491525e-01 1.000000e+00 0.000000e+00
 9.322034e-01 1.000000e+00 0.000000e+00
 9.152542e-01 1.000000e+00 0.000000e+00
 8.983051e-01 1.000000e+00 0.000000e+00
 8.813559e-01 1.000000e+00 0.000000e+00
 8.644068e-01 1.000000e+00 0.000000e+00
 8.474576e-01 1.000000e+00 0.000000e+00
 8.305085e-01 1.000000e+00 0.000000e+00
 8.135593e-01 1.000000e+00 0.000000e+00
 7.966102e-01 1.000000e+00 0.000000e+00
 7.796610e-01 1.000000e+00 0.000000e+00
 7.627119e-01 1.000000e+00 0.000000e+00
 7.457627e-01 1.000000e+00 0.000000e+00
 7.288136e-01 1.000000e+00 0.000000e+00
 7.118644e-01 1.000000e+00 0.000000e+00
 6.949153e-01 1.000000e+00 0.000000e+00
 6.779661e-01 1.000000e+00 0.000000e+00
 6.610169e-01 1.000000e+00 0.000000e+00
 6.440678e-01 1.000000e+00 0.000000e+00
 6.271186e-01 1.000000e+00 0.000000e+00
 6.101695e-01 1.000000e+00 0.000000e+00
 5.932203e-01 1.000000e+00 0.000000e+00
 5.762712e-01 1.000000e+00 0.000000e+00
 5.593220e-01 1.000000e+00 0.000000e+00
 5.423729e-01 1.000000e+00 0.000000e+00
 5.254237e-01 1.000000e+00 0.000000e+00
 5.084746e-01 1.000000e+00 0.000000e+00
 4.915254e-01 1.000000e+00 0.000000e+00
 4.745763e-01 1.000000e+00 0.000000e+00
 4.576271e-01 1.000000e+00 0.000000e+00
 4.406780e-01 1.000000e+00 0.000000e+00
 4.237288e-01 1.000000e+00 0.000000e+00
 4.067797e-01 1.000000e+00 0.000000e+00
 3.898305e-01 1.000000e+00 0.000000e+00
 3.728814e-01 1.000000e+00 0.000000e+00
 3.559322e-01 1.000000e+00 0.000000e+00
 3.389831e-01 1.000000e+00 0.000000e+00
 3.220339e-01 1.000000e+00 0.000000e+00
 3.050847e-01 1.000000e+00 0.000000e+00
 2.881356e-01 1.000000e+00 0.000000e+00
 2.711864e-01 1.000000e+00 0.000000e+00
 2.542373e-01 1.000000e+00 0.000000e+00
 2.372881e-01 1.000000e+00 0.000000e+00
 2.203390e-01 1.000000e+00 0.000000e+00
 2.033898e-01 1.000000e+00 0.000000e+00
 1.864407e-01 1.000000e+00 0.000000e+00
 1.694915e-01 1.000000e+00 0.000000e+00
 1.525424e-01 1.000000e+00 0.000000e+00
 1.355932e-01 1.000000e+00 0.000000e+00
 1.186441e-01 1.000000e+00 0.000000e+00
 1.016949e-01 1.000000e+00 0.000000e+00
 8.474576e-02 1.000000e+00 0.000000e+00
 6.779661e-02 1.000000e+00 0.000000e+00
 5.084746e-02 1.000000e+00 0.000000e+00
 3.389831e-02 1.000000e+00 0.000000e+00
 1.694915e-02 1.000000e+00 0.000000e+00
 0.000000e+00 9.830508e-01 0.000000e+00
 0.000000e+00 9.661017e-01 0.000000e+00
 0.000000e+00 9.491525e-01 0.000000e+00
 0.000000e+00 9.322034e-01 0.000000e+00
 0.000000e+00 9.152542e-01 0.000000e+00
 0.000000e+00 8.983051e-01 0.000000e+00
 0.000000e+00 8.813559e-01 0.000000e+00
 0.000000e+00 8.644068e-01 0.000000e+00
 0.000000e+00 8.474576e-01 0.000000e+00
 0.000000e+00 8.305085e-01 0.000000e+00
 0.000000e+00 8.135593e-01 0.000000e+00
 0.000000e+00 7.966102e-01 0.000000e+00
 0.000000e+00 7.796610e-01 0.000000e+00
 0.000000e+00 7.627119e-01 0.000000e+00
 0.000000e+00 7.457627e-01 0.000000e+00
 0.000000e+00 7.288136e-01 0.000000e+00
 0.000000e+00 7.118644e-01 0.000000e+00
 0.000000e+00 6.949153e-01 0.000000e+00
 0.000000e+00 6.779661e-01 0.000000e+00
 0.000000e+00 6.610169e-01 0.000000e+00
 0.000000e+00 6.440678e-01 0.000000e+00
 0.000000e+00 6.271186e-01 0.000000e+00
 0.000000e+00 6.101695e-01 0.000000e+00
 0.000000e+00 5.932203e-01 0.000000e+00
 0.000000e+00 5.762712e-01 0.000000e+00
 0.000000e+00 5.593220e-01 0.000000e+00
 0.000000e+00 5.423729e-01 0.000000e+00
 0.000000e+00 5.254237e-01 0.000000e+00
 0.000000e+00 5.084746e-01 0.000000e+00
 0.000000e+00 4.915254e-01 0.000000e+00
 0.000000e+00 4.745763e-01 0.000000e+00
 0.000000e+00 4.576271e-01 0.000000e+00
 0.000000e+00 4.406780e-01 0.000000e+00
 0.000000e+00 4.237288e-01 0.000000e+00
 0.000000e+00 4.067797e-01 0.000000e+00
 0.000000e+00 3.898305e-01 0.000000e+00
 0.000000e+00 3.728814e-01 0.000000e+00
 0.000000e+00 3.559322e-01 0.000000e+00
 0.000000e+00 3.389831e-01 0.000000e+00
 0.000000e+00 3.220339e-01 0.000000e+00
 0.000000e+00 3.050847e-01 0.000000e+00
 0.000000e+00 2.881356e-01 0.000000e+00
 0.000000e+00 2.711864e-01 0.000000e+00
 0.000000e+00 2.542373e-01 0.000000e+00
 0.000000e+00 2.372881e-01 0.000000e+00
 0.000000e+00 2.203390e-01 0.000000e+00
 0.000000e+00 2.033898e-01 0.000000e+00
 0.000000e+00 1.864407e-01 0.000000e+00
 0.000000e+00 1.694915e-01 0.000000e+00
 0.000000e+00 1.525424e-01 0.000000e+00
 0.000000e+00 1.355932e-01 0.000000e+00
 0.000000e+00 1.186441e-01 0.000000e+00
 0.000000e+00 1.016949e-01 0.000000e+00
 0.000000e+00 8.474576e-02 0.000000e+00
 0.000000e+00 6.779661e-02 0.000000e+00
 0.000000e+00 5.084746e-02 0.000000e+00
 0.000000e+00 3.389831e-02 0.000000e+00
 0.000000e+00 1.694915e-02 0.000000e+00
 5.005028e-01 4.998391e-01 0.000000e+00
 7.071661e-01 2.918712e-01 0.000000e+00
 7.058461e-01 7.075282e-01 0.000000e+00
 2.933884e-01 7.073367e-01 0.000000e+00
 2.938885e-01 2.941144e-01 0.000000e+00
 4.999703e-01 7.791089e-01 0.000000e+00
 5.001569e-01 2.194803e-01 0.000000e+00
 2.181991e-01 4.983680e-01 0.000000e+00
[...]
<PointData Scalars="press" Vectors="vel">
<DataArray Name="press" type="Float64" NumberOfComponents="1" format="ascii">
 2.537412e+06
 2.448375e+06
 -2.445175e+06
 -2.734110e+06
 2.543186e+06
 2.531372e+06
 2.536753e+06
 2.525610e+06
 2.528512e+06
 2.526790e+06
 2.517340e+06
 2.513195e+06
 2.509056e+06
 2.506016e+06
 2.499626e+06
 2.494729e+06
 2.488546e+06
 2.484188e+06
 2.472048e+06
 2.473807e+06
 2.461403e+06
 2.450520e+06
 2.440290e+06
 2.422015e+06
 2.402289e+06
 2.390761e+06
 2.403191e+06
 2.429288e+06
 2.444595e+06
 2.452466e+06
 2.459855e+06
 2.468502e+06
 2.474898e+06
 2.482332e+06
 2.489863e+06
 2.501257e+06
 2.500684e+06
 2.510986e+06
 2.520168e+06
 2.520396e+06
 2.524033e+06
 2.523942e+06
 2.524519e+06
 2.521590e+06
 2.519634e+06
 2.519165e+06
 2.518517e+06
 2.517262e+06
 2.515620e+06
 2.507000e+06
 2.511067e+06
 2.509635e+06
 2.509382e+06
 2.504817e+06
 2.503342e+06
 2.501802e+06
 2.506563e+06
 2.505553e+06
 2.499104e+06
 2.500392e+06
 2.481250e+06
 2.465102e+06
 2.426366e+06
 2.368353e+06
 2.287376e+06
 2.200116e+06
 2.110296e+06
 2.019396e+06
 1.928616e+06
 1.839104e+06
 1.750294e+06
 1.663000e+06
 1.576214e+06
 1.490847e+06
 1.406244e+06
 1.322182e+06
 1.237876e+06
 1.154055e+06
 1.069809e+06
 9.857524e+05
 9.012082e+05
 8.164180e+05
 7.314642e+05
 6.459791e+05
 5.605842e+05
 4.745160e+05
 3.885818e+05
 3.020399e+05
 2.156617e+05
 1.287901e+05
 4.181397e+04
 -4.505344e+04
 -1.323322e+05
 -2.194145e+05
 -3.066130e+05
 -3.937804e+05
 -4.811409e+05
 -5.682637e+05
 -6.551503e+05
 -7.425652e+05
 -8.292177e+05
 -9.160370e+05
 -1.002458e+06
 -1.088672e+06
 -1.174684e+06
 -1.260458e+06
 -1.345743e+06
 -1.430886e+06
 -1.515544e+06
 -1.599689e+06
 -1.683352e+06
 -1.765835e+06
 -1.847300e+06
 -1.926982e+06
 -2.004635e+06
 -2.080313e+06
 -2.153831e+06
 -2.224337e+06
 -2.294852e+06
 -2.356323e+06
 -2.439920e+06
 -2.454274e+06
 -2.451407e+06
 -2.466576e+06
 -2.467003e+06
 -2.471196e+06
 -2.483614e+06
 -2.489854e+06
 -2.494786e+06
 -2.497564e+06
 -2.503071e+06
 -2.507189e+06
 -2.516632e+06
 -2.512571e+06
 -2.516587e+06
 -2.522901e+06
 -2.529256e+06
 -2.536495e+06
 -2.540743e+06
 -2.542647e+06
 -2.546670e+06
 -2.548464e+06
 -2.552702e+06
 -2.554944e+06
 -2.558517e+06
 -2.561388e+06
 -2.565388e+06
 -2.566135e+06
 -2.570142e+06
 -2.570071e+06
 -2.568480e+06
 -2.567038e+06
 -2.564292e+06
 -2.557513e+06
 -2.554033e+06
 -2.557069e+06
 -2.549637e+06
 -2.548188e+06
 -2.548851e+06
 -2.545866e+06
 -2.548828e+06
 -2.546249e+06
 -2.540770e+06
 -2.549583e+06
 -2.542291e+06
 -2.544027e+06
 -2.544492e+06
 -2.546878e+06
 -2.548581e+06
 -2.555780e+06
 -2.562542e+06
 -2.572007e+06
 -2.579474e+06
 -2.599590e+06
 -2.630774e+06
 -2.661536e+06
 -2.705442e+06
 -2.725992e+06
 -2.575609e+06
 -2.441494e+06
 -2.324931e+06
 -2.219713e+06
 -2.121646e+06
 -2.029362e+06
 -1.939118e+06
 -1.849874e+06
 -1.762955e+06
 -1.676438e+06
 -1.591455e+06
 -1.506421e+06
 -1.421337e+06
 -1.335598e+06
 -1.248913e+06
 -1.159798e+06
 -1.069135e+06
 -9.770447e+05
 -8.848057e+05
 -7.939030e+05
 -7.056001e+05
 -6.191302e+05
 -5.335112e+05
 -4.478334e+05
 -3.620510e+05
 -2.759921e+05
 -1.897149e+05
 -1.033948e+05
 -1.706581e+04
 6.915442e+04
 1.549740e+05
 2.405913e+05
 3.257133e+05
 4.103412e+05
 4.943932e+05
 5.781591e+05
 6.615273e+05
 7.445089e+05
 8.274470e+05
 9.102026e+05
 9.930394e+05
 1.075862e+06
 1.158807e+06
 1.241914e+06
 1.325213e+06
 1.408707e+06
 1.492511e+06
 1.576670e+06
 1.661237e+06
 1.746503e+06
 1.832525e+06
 1.919663e+06
 2.008231e+06
 2.098271e+06
 2.189887e+06
 2.283478e+06
 2.376225e+06
 2.474430e+06
 2.514137e+04
 1.055399e+06
 -1.066026e+06
 -1.078958e+06
 1.037464e+06
 -1.420123e+06
 1.410580e+06
 9.921294e+04
 7.684712e+03
 1.652803e+06
 -1.682805e+06
 1.652423e+06
 -1.664272e+06
 7.187645e+05
 -3.510073e+05
 -3.198575e+05
 7.244952e+05
 -1.748740e+06
 7.220665e+05
 -7.149409e+05
 -1.765886e+06
 -7.209132e+05
 1.739816e+06
 1.731928e+06
 4.951043e+05
 -7.313460e+05
 3.167658e+05
 9.815885e+05
 -1.007944e+06
 -1.972193e+06
 2.101611e+05
 1.948961e+06
 -1.868711e+05
 -1.134138e+06
 5.444779e+05
 1.972688e+06
 -1.228500e+06
 1.210908e+06
 -1.991426e+06
 -1.983806e+06
 -1.211953e+06
 1.968256e+06
 1.210865e+06
 -5.442657e+05
 -5.282339e+05
 1.230094e+06
 5.201987e+05
 -2.027626e+06
 2.013319e+06
 2.009191e+06
 -2.065167e+06
 5.997814e+05
 2.020150e+06
 -2.045316e+06
 -2.931434e+05
 3.144860e+05
 1.493298e+06
 1.206657e+06
 -1.502903e+06
 -1.521371e+06
 1.124981e+06
 -1.136666e+06
 1.512795e+06
 -1.150829e+06
 1.238794e+05
 -4.021486e+05
 2.813095e+05
 6.573952e+04
 9.770842e+05
 7.352362e+05
 1.311313e+06
 -7.776494e+05
 -1.324662e+06
 -2.136949e+06
 -2.118661e+06
 1.600029e+06
 1.602315e+06
 2.094857e+06
 2.108079e+06
 -1.616205e+06
 -1.607067e+06
 -7.544359e+05
 -6.416806e+04
 -5.552104e+05
 2.116020e+06
 -2.119030e+06
 5.772225e+05
 -3.235992e+05
 2.137930e+06
 -8.298404e+05
 -2.128014e+06
 8.392737e+05
 -1.371307e+06
 -1.513314e+06
 -1.643612e+06
 -3.438812e+05
 3.384841e+05
 1.629416e+06
 1.518707e+06
 4.164222e+05
 -3.610254e+05
 7.748645e+05
 8.406307e+05
 -1.066155e+06
 1.402638e+06
 -9.272430e+05
 2.151830e+06
 -2.181263e+06
 9.126320e+05
 -1.041949e+05
 2.596763e+05
 -5.989656e+05
 -8.646474e+05
 -7.364335e+05
 -1.314451e+06
 -1.581721e+05
 -8.920106e+05
 6.711281e+05
 2.189320e+06
 -2.201210e+06
 -3.056910e+03
 2.918450e+04
 -5.800170e+05
 3.288652e+04
 2.239409e+04
 1.717256e+06
 -1.729712e+06
 1.241044e+06
 -1.758277e+06
 1.724607e+06
 1.023148e+06
 -1.741929e+06
 -1.380867e+06
 1.703639e+06
 -1.372756e+06
 1.353571e+06
 8.995267e+05
 1.196349e+06
 1.026308e+06
 -2.221393e+06
 5.562043e+05
 -5.314484e+05
 2.221458e+06
 4.998287e+05
 1.374121e+04
 -5.464737e+05
 2.506289e+05
 3.092796e+05
 2.233215e+06
 -2.207305e+06
 -2.298329e+06
 2.239814e+06
 -1.193867e+06
 2.688653e+05
 4.094812e+05
 3.070959e+05
 -2.823491e+05
 2.220532e+06
 -2.236002e+06
 1.738193e+06
 -1.739784e+06
 1.364278e+06
 -1.758979e+06
 2.223749e+06
 -1.363536e+06
 -2.230918e+06
 -2.240533e+06
 -1.343661e+06
 1.347755e+06
 2.233218e+06
 1.339618e+06
 -1.815286e+06
 9.991696e+05
 -1.012309e+06
 1.775659e+06
 -1.005461e+06
 -5.151435e+05
 -1.047583e+06
 1.803501e+06
 -9.037561e+05
 7.670437e+05
 -2.261935e+05
 4.703896e+05
 -1.079236e+06
 -2.237549e+06
 -2.273128e+06
 -1.863442e+06
 1.840230e+06
 -1.867194e+06
 1.831458e+06
 2.248423e+06
 2.243419e+06
 7.215568e+05
 -5.959811e+05
 5.507046e+05
 9.664830e+05
 1.497305e+06
 -4.565822e+05
 -7.804839e+05
 -1.323264e+06
 1.223537e+06
 -1.238895e+06
 1.263326e+06
 -1.251004e+06
 -6.152434e+05
 1.961141e+05
 1.023254e+06
 1.076224e+06
 -2.250902e+06
 2.261955e+06
 -1.080644e+06
 -1.904856e+06
 1.893169e+06
 1.891442e+06
 -1.931042e+06
 -8.062616e+05
 5.826071e+05
 1.468223e+06
 -1.479770e+06
 1.469344e+06
 -1.500330e+06
 -2.525275e+05
 7.944248e+05
 7.950633e+05
 -1.541090e+06
 1.947245e+06
 -1.958509e+06
 -5.545889e+05
 5.669894e+05
 1.530144e+06
 -3.251134e+05
 4.729247e+05
 1.293800e+06
 -2.105994e+05
 -1.545778e+06
 6.484087e+05
 5.005505e+05
 8.774150e+05
 -1.490873e+05
 -8.881264e+05
 -8.829659e+05
 7.467170e+04
 -2.266151e+06
 2.276383e+06
 -2.431798e+05
 2.702995e+05
 -1.540615e+06
 1.527998e+06
 -1.555507e+06
 1.861754e+06
 -1.977690e+06
 -4.238548e+04
 1.955680e+06
 7.301881e+04
 -1.687222e+06
 -5.579783e+04
 3.608182e+05
 -1.946503e+06
 8.877480e+05
 1.391440e+06
 -5.094899e+05
 9.323259e+05
 -7.574683e+05
 1.979690e+06
 -6.308719e+04
 1.689141e+06
 -1.338062e+06
 -2.292003e+06
 1.118553e+06
 1.211118e+06
 -1.121308e+06
 2.270844e+06
 -1.543685e+06
 2.707086e+05
 -3.506298e+05
 1.521310e+06
 1.567813e+06
 2.505051e+05
 7.186863e+05
 -2.294612e+06
 -7.207100e+05
 2.279874e+06
 -3.099496e+05
 6.213410e+05
 -1.896557e+06
 -1.913417e+06
 1.887890e+06
 1.274449e+06
 -1.217183e+06
 1.040374e+06
 1.792639e+06
 1.790481e+06
 -1.828738e+06
 -5.535740e+05
 -1.799539e+06
 -7.981931e+05
 1.954947e+06
 -1.889853e+06
 -9.136296e+05
 -1.601883e+06
 -1.861727e+05
 1.193212e+06
 1.009722e+06
 7.676737e+05
 -9.231242e+05
 2.310039e+06
 -2.331207e+06
 1.532527e+06
 1.535361e+06
 -2.302845e+06
 2.326476e+06
 -1.545421e+06
 -1.564940e+06
 1.427947e+05
 3.922848e+04
 -1.326121e+06
 2.746685e+05
 1.009799e+06
 -4.060892e+05
 -1.393159e+05
 7.436896e+05
 -7.160165e+05
 -2.302445e+06
 2.325694e+06
 1.417109e+06
 -8.353677e+05
 8.349308e+05
 2.495913e+05
 -2.266924e+05
 1.821665e+06
 -1.846223e+06
 6.399158e+05
 -5.472503e+05
 4.897391e+05
 -2.306578e+06
 -4.770101e+05
 2.299225e+06
 -1.680050e+05
 8.193572e+04
 -1.763944e+06
 1.743835e+06
 -5.121811e+05
 5.144929e+05
 -1.399117e+06
 1.230498e+06
 -1.413823e+06
 -1.409608e+06
 1.401393e+06
 -3.921341e+05
 8.205015e+05
 -2.042982e+06
 2.031881e+06
 -2.052792e+06
 2.884882e+05
 2.025125e+06
 -5.551703e+05
 2.334547e+06
 -1.488376e+06
 2.348422e+06
 -2.031708e+06
 -2.009612e+06
 -1.936238e+06
 -2.075136e+06
 -2.295888e+06
 -2.367063e+06
 -1.017834e+06
 1.981541e+06
 2.051868e+06
 -9.482214e+05
 2.035306e+06
 -1.247606e+06
 -9.397153e+05
 6.810093e+05
 1.988988e+06
 1.526594e+06
 -1.321493e+06
 4.063998e+05
 -9.935111e+05
 9.942359e+05
 8.838020e+05
 -9.148726e+05
 -3.637065e+05
 -8.381656e+05
 -9.738455e+04
 1.483190e+05
 1.543150e+06
 1.928010e+06
 -2.038126e+06
 1.426923e+06
 4.510246e+05
 7.190832e+05
 -2.336686e+05
 -1.174840e+06
 9.335399e+05
 8.247347e+05
 4.988295e+05
 -1.052967e+06
 -1.203127e+06
 -1.662808e+05
 -1.073689e+06
 -5.372395e+05
 5.423746e+05
 7.226963e+05
 -2.078005e+06
 -2.313269e+06
 -1.147248e+05
 2.321986e+06
 1.278143e+05
 1.584066e+06
 -4.245993e+05
 1.114050e+06
 1.108434e+05
 3.739444e+05
 -1.321854e+06
 1.436403e+06
 -1.173356e+06
 -1.176407e+06
 1.773826e+06
 1.162341e+06
 -1.136063e+06
 -1.304017e+06
 1.290645e+06
 -1.711720e+06
 1.783151e+06
 -1.688219e+06
 1.193439e+06
 1.934135e+06
 -2.036378e+06
 1.032293e+06
 1.700227e+05
 1.968832e+05
 1.153387e+06
 -5.743037e+05
 5.691782e+05
 -1.520855e+06
 1.116263e+06
 -6.977358e+05
 5.710980e+05
 -1.565134e+06
 -9.643393e+05
 2.339678e+06
 9.557835e+05
 -2.341891e+06
 8.778284e+05
 -3.393449e+05
 2.366729e+06
 -2.333239e+06
 9.160342e+05
 -9.017734e+05
 -1.482610e+06
 7.435133e+05
 1.077190e+06
 1.573732e+06
 -7.151702e+05
 -2.071747e+06
 2.069925e+06
 -2.098851e+06
 2.070710e+06
 2.121246e+06
 1.611002e+05
 -2.145941e+06
 -1.351876e+05
 -1.070183e+06
 -1.190050e+05
 -7.199503e+05
 1.373349e+06
 8.234060e+05
 -2.191180e+05
 4.285513e+05
 -2.337898e+06
 -4.095560e+05
 2.359763e+06
 2.778785e+05
 -7.298719e+05
 4.353304e+05
 6.554249e+05
 1.710528e+06
 1.710954e+06
 -2.377277e+06
 2.361087e+06
 -1.725836e+06
 -1.711942e+06
 -2.336386e+06
 1.703450e+06
 2.380729e+06
 -1.732899e+06
 -1.738555e+06
 3.645404e+05
 -1.658593e+06
 -9.257079e+05
 2.367353e+06
 1.217974e+06
 -2.330905e+06
 -1.227405e+06
 1.386920e+06
 -1.597828e+06
 -7.243098e+05
 1.727068e+06
 -2.301336e+06
 -2.438101e+06
 2.375280e+06
 2.375351e+06
 2.600993e+05
 -6.641684e+05
 6.688680e+05
 -2.087646e+06
 2.096483e+06
 -8.419205e+05
 2.098975e+06
 -1.135474e+06
 1.172728e+05
 2.358284e+06
 -9.816264e+04
 1.647764e+06
 -2.333923e+06
 -9.566050e+05
 1.871088e+06
 8.799366e+05
 -1.355837e+06
 -1.348975e+06
 1.346069e+06
 -6.856489e+05
 -6.226421e+05
 -2.160885e+06
 5.995982e+05
 1.195687e+06
 -6.288047e+05
 -1.204098e+06
 -2.156882e+06
 2.149303e+06
 1.201894e+06
 1.913194e+05
 -8.440469e+05
 1.839312e+06
 -3.614093e+05
 7.196576e+04
 1.084228e+06
 -3.939686e+05
 4.073444e+05
 1.879259e+06
 -1.908332e+06
 -1.238016e+06
 5.051819e+05
 -6.056079e+05
 7.112446e+05
 6.379043e+05
 -1.185862e+06
 -1.812997e+06
 -6.741850e+05
 5.537024e+05
 -1.382304e+06
 7.557927e+05
 2.130799e+06
 -2.148692e+06
 -1.599343e+05
 1.849828e+05
 9.714960e+04
 -7.781035e+05
 1.380084e+06
 -7.383614e+05
 -2.171799e+06
 -3.715758e+05
 3.905613e+05
 2.179637e+06
 -1.648815e+06
 1.506488e+06
 -1.502205e+06
 4.078949e+05
 1.619042e+06
 -1.537878e+06
 2.368206e+05
 -3.439406e+05
 5.168971e+05
 -1.894501e+06
 1.779452e+06
 -3.830665e+05
 9.297861e+05
 1.627164e+06
 1.569773e+06
 -1.630510e+06
 -1.581091e+06
 1.349458e+06
 1.499830e+06
 -1.656207e+06
 -1.600449e+06
 7.299885e+05
 1.503728e+05
 1.249390e+06
 -2.159460e+06
 2.075904e+06
 -2.364090e+06
 -1.270212e+06
 2.070528e+06
 -2.215783e+06
 -1.212299e+06
 2.360369e+06
 -1.696024e+06
 1.056832e+06
 1.611408e+06
 1.808436e+06
 2.114257e+06
 -1.365999e+06
 -4.643163e+05
 -1.926364e+06
 7.964927e+04
 -5.290384e+04
 1.883361e+06
 -8.843094e+05
 -1.915682e+06
 -1.904646e+06
 1.631046e+06
 1.136762e+06
 -1.846329e+06
 -3.699256e+05
 6.362100e+05
 4.234015e+05
 -4.316028e+05
 1.355625e+06
 -4.511273e+05
 -2.352035e+06
 2.384755e+06
 -5.710580e+05
 5.998513e+05
 -2.001239e+06
 6.500199e+05
 2.175294e+06
 -2.044589e+06
 -1.831054e+04
 2.168128e+06
 -7.190325e+05
 2.135719e+06
 -1.783629e+06
 8.724935e+05
 1.113125e+06
 1.627280e+06
 -1.157493e+05
 1.371471e+06
 -7.673297e+05
 -1.399389e+06
 1.311489e+06
 -1.386209e+06
 -1.604424e+06
 6.645717e+05
 1.478867e+05
 1.341575e+06
 -1.842991e+06
 8.632719e+05
 3.772937e+05
 1.685575e+06
 8.636666e+05
 1.010534e+06
 -1.216318e+06
 1.197900e+06
 1.073976e+06
 1.824712e+06
 -4.303296e+05
 -1.079323e+06
 -1.020382e+06
 -8.677708e+05
 -1.026797e+06
 -5.143431e+05
 -1.403491e+06
 -1.785842e+05
 1.172952e+06
 5.415715e+05
 -6.468826e+05
 3.533774e+05
 -5.929443e+03
 -2.358306e+06
 2.363607e+06
 -2.346483e+06
 -3.261286e+05
 2.370538e+06
 1.399711e+06
 1.679800e+05
 1.403446e+06
 -1.414171e+06
 -2.374778e+06
 -1.430782e+06
 1.359903e+06
 2.393001e+06
 4.267917e+05
 1.129844e+06
 -1.144624e+06
 -1.135904e+06
 3.539498e+05
 -7.227082e+05
 1.745862e+06
 -1.775854e+06
 -1.762255e+06
 1.748638e+06
 2.396350e+06
 -1.163108e+05
 2.404018e+06
 2.199895e+06
 -2.437631e+06
 -2.224195e+06
 -2.332908e+06
 2.192295e+06
 -2.162930e+06
 1.087468e+06
 5.212427e+05
 -2.341396e+05
 -6.822652e+05
 -1.192917e+06
 -1.102873e+05
 -2.157964e+06
 1.257788e+06
 1.377771e+06
 3.310527e+05
 4.089397e+05
 -1.271758e+06
 -5.610317e+05
 -1.288083e+06
 -1.064132e+06
 -9.383880e+05
 7.326092e+04
 -8.059388e+05
 1.371790e+06
 1.513996e+06
 2.144012e+06
 6.133800e+05
 1.643062e+06
 -6.901726e+05
 1.356289e+06
 8.608037e+05
 1.164479e+06
 -1.529858e+05
 1.689575e+06
 -1.276774e+06
 1.799035e+05
 2.097646e+06
 -6.206262e+05
 4.358044e+05
 -6.917477e+05
 6.975447e+05
 1.448727e+06
 7.507287e+05
 2.388094e+06
 -2.404325e+06
 1.463513e+06
 -1.906800e+06
 9.840690e+05
 1.643813e+06
 1.896722e+06
 -1.679345e+06
 6.978117e+04
 -2.346666e+06
 1.896697e+06
 -1.913680e+06
 -1.661614e+06
 2.177001e+06
 2.405471e+06
 -1.497386e+06
 -2.204272e+06
 -2.189357e+06
 -1.090720e+06
 -1.484533e+06
 1.801410e+06
 2.183798e+06
 -1.907387e+04
 1.477034e+06
 -1.449028e+06
 8.999979e+05
 -9.832199e+04
 1.955733e+06
 1.894208e+06
 6.424367e+05
 1.892211e+06
 8.850873e+05
 -1.006920e+06
 -9.911821e+05
 -2.217046e+06
 -2.246077e+06
 2.221255e+06
 1.254720e+06
 -1.673079e+06
 2.206165e+06
 -1.831674e+06
 -1.789807e+06
 3.304739e+05
 4.322872e+05
 -1.311366e+06
 -6.645127e+04
 8.429471e+05
 7.843163e+05
 -6.030726e+05
 2.345214e+06
 1.798091e+06
 -1.831025e+06
 -1.808741e+06
 -2.368964e+06
 1.780453e+06
 6.183897e+05
 1.563189e+06
 -7.681498e+05
 -1.099880e+06
 -1.898142e+06
 -4.271677e+05
 1.045351e+06
 -1.062961e+06
 -3.843915e+05
 -1.905579e+06
 -8.855354e+05
 1.309846e+06
 1.655104e+06
 -2.104257e+06
 -6.039626e+05
 -1.946885e+05
 5.238943e+05
 -1.071480e+06
 -1.557021e+06
 -3.734473e+05
 -3.055959e+05
 -2.261926e+05
 1.599822e+06
 -1.757707e+05
 -4.658363e+05
 2.966482e+05
 6.594164e+05
 9.753159e+05
 -9.712821e+05
 -4.794379e+05
 -1.985136e+06
 -1.997548e+06
 1.972529e+06
 -2.172921e+06
 1.055390e+06
 1.916763e+06
 1.918439e+06
 -1.925077e+06
 -1.954068e+06
 -1.144590e+06
 -5.151679e+05
 7.215872e+05
 6.095722e+05
 -1.461679e+06
 2.040904e+06
 -2.089184e+06
 1.251324e+06
 -4.927452e+05
 2.080441e+06
 4.600058e+05
 -9.939513e+05
 2.794491e+05
 -2.740191e+05
 -1.634455e+06
 -1.893573e+06
 -1.928487e+06
 2.001379e+06
 -2.026198e+06
 8.061045e+04
 -2.168142e+06
 -5.452549e+04
 1.458908e+06
 1.550343e+06
 1.247616e+04
 -4.565529e+05
 1.049496e+06
 2.406526e+06
 -1.547550e+06
 1.520751e+06
 -2.376353e+06
 -1.045916e+06
 -8.186984e+05
 4.440425e+05
 -2.363249e+06
 2.360952e+06
 8.173080e+05
 -5.635747e+05
 1.657496e+06
 1.508995e+06
 -9.422356e+05
 -1.423616e+06
 1.855306e+06
 5.722705e+05
 1.024377e+06
 -8.873692e+05
 2.023621e+06
 -1.672601e+06
 3.727245e+05
 1.662313e+06
 -1.684301e+06
 1.662401e+06
 -1.356734e+06
 -6.874542e+04
 -1.671458e+06
 1.861787e+06
 -1.173563e+06
 1.391581e+06
 1.884407e+06
 -1.842021e+06
 1.139029e+06
 -8.363550e+05
 1.819826e+06
 -7.687217e+04
 9.780745e+05
 1.131750e+05
 -2.196890e+06
 -1.501113e+06
 -9.336616e+05
 -2.152895e+06
 4.323045e+05
 -1.191817e+06
 2.966656e+05
 1.293353e+05
 9.238332e+05
 -1.628926e+06
 9.361087e+05
 -1.776116e+06
 -3.616234e+05
 1.754751e+06
 -1.881073e+05
 3.670180e+05
 -6.013819e+05
 6.074921e+05
 2.227162e+06
 -2.252164e+06
 4.272245e+05
 -2.500172e+05
 1.285136e+06
 -1.195152e+06
 1.752451e+06
 -9.143431e+05
 -1.757624e+06
 1.244246e+06
 -1.779466e+06
 8.518000e+05
 -1.199593e+06
 -9.193592e+04
 -2.984077e+05
 1.844470e+05
 -5.008476e+04
 1.770715e+06
 1.464623e+06
 -1.574585e+06
 1.360447e+05
 -1.495337e+06
 6.187416e+05
 -1.971938e+06
 1.864180e+06
 -1.852578e+05
 2.112476e+05
 9.906489e+05
 1.956627e+06
 7.015831e+05
 1.502747e+06
 1.665446e+06
 2.017039e+06
 1.266989e+06
 -2.001679e+06
 -1.638128e+06
 -4.655211e+05
 1.697229e+06
 2.392518e+06
 -1.054949e+06
 -2.377219e+06
 3.430593e+04
 -1.359518e+06
 8.669522e+05
 -1.268941e+06
 -1.275585e+04
 -1.259859e+06
 -1.852205e+06
 1.254340e+06
 -4.814498e+05
 -9.732685e+05
 1.616976e+04
 9.703755e+05
 -1.453738e+06
 3.436674e+05
 7.725026e+05
 1.326693e+06
 -4.007578e+05
 2.601522e+05
 -2.389200e+06
 2.416256e+06
 -2.844946e+05
 -1.810310e+06
 1.294457e+06
 -2.212601e+06
 -1.417773e+06
 1.113958e+05
 8.879372e+05
 -2.381693e+06
 1.047333e+06
 -1.397827e+06
 -1.059236e+06
 1.385885e+06
 2.379487e+06
 2.221560e+06
 -9.682088e+05
 1.135991e+06
 1.525737e+06
 3.628469e+05
 -1.530997e+06
 -1.540813e+06
 -7.566737e+05
 7.627966e+05
 2.000714e+06
 6.912835e+05
 -3.041135e+05
 -2.014153e+06
 -2.027398e+06
 2.002727e+06
 -6.538906e+05
 1.650309e+06
 -8.479228e+03
 2.087290e+06
 1.949205e+05
 4.236726e+05
 2.092944e+06
 2.251552e+06
 8.430039e+05
 3.333950e+05
 -8.459946e+05
 2.274083e+05
 1.203367e+06
 -1.873451e+06
 9.603706e+05
 -2.064746e+06
 -2.388621e+05
 3.459424e+05
 -5.144937e+05
 1.630911e+06
 -1.233569e+06
 2.217731e+06
 1.533125e+06
 1.001897e+06
 -1.038533e+06
 2.216505e+06
 2.191792e+06
 1.633784e+06
 2.223933e+06
 -2.105542e+06
 -2.145956e+06
 -2.092992e+06
 -1.922541e+06
 -5.328469e+04
 2.072068e+06
 8.119186e+04
 1.161857e+06
 3.208060e+04
 -1.435613e+06
 1.961905e+06
 1.978098e+06
 4.857828e+05
 1.604319e+06
 -2.232667e+06
 7.036667e+05
 -1.636738e+06
 8.430479e+05
 -8.279707e+05
 2.387612e+06
 2.419192e+05
 2.019679e+06
 1.071460e+06
 -2.378833e+06
 -2.212291e+05
 -2.110691e+05
 -1.492158e+05
 -2.099018e+05
 9.533317e+05
 -1.281148e+06
 -6.434505e+05
 -2.935547e+05
 5.643313e+05
 1.255154e+06
 -1.417795e+06
 -2.094416e+06
 1.391798e+05
 -2.071926e+06
 -9.576803e+05
 9.291725e+05
 2.318007e+05
 4.383528e+04
 2.000375e+06
 -8.300423e+05
 5.188436e+05
 7.427254e+05
 -2.143654e+06
 -8.111511e+05
 6.774816e+05
 -6.537334e+05
 9.677185e+05
 -1.267273e+06
 -2.221615e+06
 -1.311487e+06
 2.217110e+06
 1.291197e+06
 1.098984e+06
 1.102890e+06
 -1.099718e+06
 -2.137033e+06
 2.126750e+06
 -1.475104e+06
 -1.303875e+06
 1.287865e+06
 1.140408e+06
 2.434014e+06
 6.224137e+05
 -8.015749e+05
 -2.384066e+06
 8.236022e+05
 2.522752e+05
 -5.383595e+05
 1.694535e+06
 -1.416401e+06
 -1.643072e+06
 -1.025910e+06
 -3.534684e+05
 -8.928508e+05
 1.444233e+06
 8.959431e+05
 -1.316242e+06
 7.149387e+05
 -2.136380e+06
 -7.316502e+05
 -3.116289e+05
 -1.464393e+06
 5.885707e+05
 -6.177457e+05
 -2.042132e+06
 1.098224e+06
 -1.679569e+06
 -2.412553e+06
 1.605659e+06
 -2.371919e+06
 2.422601e+06
 1.605092e+06
 2.442454e+06
 -1.629813e+06
 -2.346738e+05
 -1.620238e+06
 1.857119e+06