<?xml version="1.0"?>
<VTKFile type="UnstructuredGrid" version="0.1">
<UnstructuredGrid>
<FieldData>
<DataArray Name="TIME" type="Float64" format="ascii" NumberOfTuples="1">
0.000000e+00
</DataArray>
</FieldData>
<FieldData>
<DataArray Name="CYCLE" type="Int32" format="ascii" NumberOfTuples="1">
0
</DataArray>
</FieldData>
<Piece NumberOfPoints="8" NumberOfCells="6">
<Points>
<DataArray NumberOfComponents="3" type="Float64" format="ascii">
0.000000e+00 0.000000e+00 0.000000e+00
1.000000e+00 0.000000e+00 0.000000e+00
0.000000e+00 5.000000e-01 0.000000e+00
1.000000e+00 5.000000e-01 0.000000e+00
0.000000e+00 5.000000e-01 0.000000e+00
1.000000e+00 5.000000e-01 0.000000e+00
0.000000e+00 1.000000e+00 0.000000e+00
1.000000e+00 1.000000e+00 0.000000e+00
</DataArray>
</Points>
<Cells>
<DataArray Name="connectivity" type="Int32" format="ascii">
2 0
1 3
0 1
6 4
5 7
7 6
</DataArray>
<DataArray Name="offsets" type="Int32" format="ascii">
2
4
6
8
10
12
</DataArray>
<DataArray Name="types" type="UInt8" format="ascii">
3
3
3
3
3
3
</DataArray>
</Cells>
<CellData>
<DataArray Name="data" type="Float64" NumberOfComponents="9" format="ascii">
0.000000e+00 0.000000e+00 0.000000e+00 0.000000e+00 0.000000e+00 0.000000e+00 0.000000e+00 0.000000e+00 0.000000e+00
1.100000e+01 2.100000e+01 0.000000e+00 1.200000e+01 2.200000e+01 0.000000e+00 0.000000e+00 0.000000e+00 0.000000e+00
5.500000e+00 1.050000e+01 0.000000e+00 6.000000e+00 1.100000e+01 0.000000e+00 0.000000e+00 0.000000e+00 0.000000e+00
0.000000e+00 0.000000e+00 0.000000e+00 0.000000e+00 0.000000e+00 0.000000e+00 0.000000e+00 0.000000e+00 0.000000e+00
1.100000e+01 2.100000e+01 0.000000e+00 1.200000e+01 2.200000e+01 0.000000e+00 0.000000e+00 0.000000e+00 0.000000e+00
5.500000e+00 1.050000e+01 0.000000e+00 6.000000e+00 1.100000e+01 0.000000e+00 0.000000e+00 0.000000e+00 0.000000e+00
</DataArray>
<DataArray Name="mesh_vars/FaceElements_Color" type="Float64" NumberOfComponents="1" format="ascii">
0.000000e+00
1.000000e+00
2.000000e+00
0.000000e+00
1.000000e+00
2.000000e+00
</DataArray>
<DataArray Name="mesh_vars/FaceElements_Id" type="Float64" NumberOfComponents="1" format="ascii">
1.000000e+00
2.000000e+00
3.000000e+00
6.000000e+00
7.000000e+00
9.000000e+00
</DataArray>
<DataArray Name="mesh_vars/FaceElements_Owner" type="Float64" NumberOfComponents="1" format="ascii">
0.000000e+00
0.000000e+00
0.000000e+00
0.000000e+00
0.000000e+00
0.000000e+00
</DataArray>
<DataArray Name="mesh_vars/FaceElements_Tag" type="Float64" NumberOfComponents="1" format="ascii">
1.000000e+00
2.000000e+00
1.000000e+01
1.000000e+00
2.000000e+00
2.000000e+01
</DataArray>
</CellData>
</Piece>
</UnstructuredGrid>
</VTKFile>
