<?xml version="1.0"?>
<VTKFile type="UnstructuredGrid" version="0.1">
<UnstructuredGrid>
<FieldData>
<DataArray Name="TIME" type="Float64" format="ascii" NumberOfTuples="1">
0.000000e+00
</DataArray>
</FieldData>
<FieldData>
<DataArray Name="CYCLE" type="Int32" format="ascii" NumberOfTuples="1">
0
</DataArray>
</FieldData>
<Piece NumberOfPoints="20" NumberOfCells="36">
<Points>
<DataArray NumberOfComponents="3" type="Float64" format="ascii">
1.000000e+00 5.000000e-01 -0.000000e+00
1.000000e+00 5.000000e-01 1.000000e+00
1.000000e+00 1.000000e+00 5.000000e-01
1.000000e+00 0.000000e+00 5.000000e-01
1.000000e+00 0.000000e+00 1.000000e+00
1.000000e+00 1.000000e+00 -0.000000e+00
1.000000e+00 0.000000e+00 -0.000000e+00
1.000000e+00 1.000000e+00 1.000000e+00
5.000000e-01 0.000000e+00 1.000000e+00
0.000000e+00 5.000000e-01 1.000000e+00
5.000000e-01 1.000000e+00 1.000000e+00
0.000000e+00 1.000000e+00 1.000000e+00
0.000000e+00 0.000000e+00 1.000000e+00
5.000000e-01 1.000000e+00 -0.000000e+00
0.000000e+00 1.000000e+00 5.000000e-01
0.000000e+00 1.000000e+00 -0.000000e+00
0.000000e+00 5.000000e-01 -0.000000e+00
0.000000e+00 0.000000e+00 5.000000e-01
0.000000e+00 0.000000e+00 -0.000000e+00
5.000000e-01 0.000000e+00 -0.000000e+00
</DataArray>
</Points>
<Cells>
<DataArray Name="connectivity" type="Int32" format="ascii">
0 2 1
1 3 0
2 0 5
3 6 0
13 0 19
0 13 5
6 19 0
1 4 3
1 2 7
8 1 10
1 7 10
8 4 1
13 10 2
5 13 2
2 10 7
8 19 3
3 19 6
8 3 4
8 10 9
8 9 12
8 17 19
8 12 17
9 10 11
9 14 16
16 17 9
12 9 17
11 14 9
10 13 14
14 11 10
13 15 14
19 16 13
16 15 13
14 15 16
17 16 18
19 18 16
17 18 19
</DataArray>
<DataArray Name="offsets" type="Int32" format="ascii">
3
6
9
12
15
18
21
24
27
30
33
36
39
42
45
48
51
54
57
60
63
66
69
72
75
78
81
84
87
90
93
96
99
102
105
108
</DataArray>
<DataArray Name="types" type="UInt8" format="ascii">
5
5
5
5
5
5
5
5
5
5
5
5
5
5
5
5
5
5
5
5
5
5
5
5
5
5
5
5
5
5
5
5
5
5
5
5
</DataArray>
</Cells>
<CellData>
<DataArray Name="data" type="Float64" NumberOfComponents="9" format="ascii">
1.100000e+01 2.100000e+01 3.100000e+01 1.200000e+01 2.200000e+01 3.200000e+01 1.300000e+01 2.300000e+01 3.300000e+01
1.100000e+01 2.100000e+01 3.100000e+01 1.200000e+01 2.200000e+01 3.200000e+01 1.300000e+01 2.300000e+01 3.300000e+01
1.100000e+01 2.100000e+01 3.100000e+01 1.200000e+01 2.200000e+01 3.200000e+01 1.300000e+01 2.300000e+01 3.300000e+01
1.100000e+01 2.100000e+01 3.100000e+01 1.200000e+01 2.200000e+01 3.200000e+01 1.300000e+01 2.300000e+01 3.300000e+01
7.333333e+00 1.400000e+01 2.066667e+01 8.000000e+00 1.466667e+01 2.133333e+01 8.666667e+00 1.533333e+01 2.200000e+01
9.166667e+00 1.750000e+01 2.583333e+01 1.000000e+01 1.833333e+01 2.666667e+01 1.083333e+01 1.916667e+01 2.750000e+01
9.166667e+00 1.750000e+01 2.583333e+01 1.000000e+01 1.833333e+01 2.666667e+01 1.083333e+01 1.916667e+01 2.750000e+01
1.100000e+01 2.100000e+01 3.100000e+01 1.200000e+01 2.200000e+01 3.200000e+01 1.300000e+01 2.300000e+01 3.300000e+01
1.100000e+01 2.100000e+01 3.100000e+01 1.200000e+01 2.200000e+01 3.200000e+01 1.300000e+01 2.300000e+01 3.300000e+01
7.333333e+00 1.400000e+01 2.066667e+01 8.000000e+00 1.466667e+01 2.133333e+01 8.666667e+00 1.533333e+01 2.200000e+01
9.166667e+00 1.750000e+01 2.583333e+01 1.000000e+01 1.833333e+01 2.666667e+01 1.083333e+01 1.916667e+01 2.750000e+01
9.166667e+00 1.750000e+01 2.583333e+01 1.000000e+01 1.833333e+01 2.666667e+01 1.083333e+01 1.916667e+01 2.750000e+01
7.333333e+00 1.400000e+01 2.066667e+01 8.000000e+00 1.466667e+01 2.133333e+01 8.666667e+00 1.533333e+01 2.200000e+01
9.166667e+00 1.750000e+01 2.583333e+01 1.000000e+01 1.833333e+01 2.666667e+01 1.083333e+01 1.916667e+01 2.750000e+01
9.166667e+00 1.750000e+01 2.583333e+01 1.000000e+01 1.833333e+01 2.666667e+01 1.083333e+01 1.916667e+01 2.750000e+01
7.333333e+00 1.400000e+01 2.066667e+01 8.000000e+00 1.466667e+01 2.133333e+01 8.666667e+00 1.533333e+01 2.200000e+01
9.166667e+00 1.750000e+01 2.583333e+01 1.000000e+01 1.833333e+01 2.666667e+01 1.083333e+01 1.916667e+01 2.750000e+01
9.166667e+00 1.750000e+01 2.583333e+01 1.000000e+01 1.833333e+01 2.666667e+01 1.083333e+01 1.916667e+01 2.750000e+01
3.666667e+00 7.000000e+00 1.033333e+01 4.000000e+00 7.333333e+00 1.066667e+01 4.333333e+00 7.666667e+00 1.100000e+01
1.833333e+00 3.500000e+00 5.166667e+00 2.000000e+00 3.666667e+00 5.333333e+00 2.166667e+00 3.833333e+00 5.500000e+00
3.666667e+00 7.000000e+00 1.033333e+01 4.000000e+00 7.333333e+00 1.066667e+01 4.333333e+00 7.666667e+00 1.100000e+01
1.833333e+00 3.500000e+00 5.166667e+00 2.000000e+00 3.666667e+00 5.333333e+00 2.166667e+00 3.833333e+00 5.500000e+00
1.833333e+00 3.500000e+00 5.166667e+00 2.000000e+00 3.666667e+00 5.333333e+00 2.166667e+00 3.833333e+00 5.500000e+00
0.000000e+00 0.000000e+00 0.000000e+00 0.000000e+00 0.000000e+00 0.000000e+00 0.000000e+00 0.000000e+00 0.000000e+00
0.000000e+00 0.000000e+00 0.000000e+00 0.000000e+00 0.000000e+00 0.000000e+00 0.000000e+00 0.000000e+00 0.000000e+00
0.000000e+00 0.000000e+00 0.000000e+00 0.000000e+00 0.000000e+00 0.000000e+00 0.000000e+00 0.000000e+00 0.000000e+00
0.000000e+00 0.000000e+00 0.000000e+00 0.000000e+00 0.000000e+00 0.000000e+00 0.000000e+00 0.000000e+00 0.000000e+00
3.666667e+00 7.000000e+00 1.033333e+01 4.000000e+00 7.333333e+00 1.066667e+01 4.333333e+00 7.666667e+00 1.100000e+01
1.833333e+00 3.500000e+00 5.166667e+00 2.000000e+00 3.666667e+00 5.333333e+00 2.166667e+00 3.833333e+00 5.500000e+00
1.833333e+00 3.500000e+00 5.166667e+00 2.000000e+00 3.666667e+00 5.333333e+00 2.166667e+00 3.833333e+00 5.500000e+00
3.666667e+00 7.000000e+00 1.033333e+01 4.000000e+00 7.333333e+00 1.066667e+01 4.333333e+00 7.666667e+00 1.100000e+01
1.833333e+00 3.500000e+00 5.166667e+00 2.000000e+00 3.666667e+00 5.333333e+00 2.166667e+00 3.833333e+00 5.500000e+00
0.000000e+00 0.000000e+00 0.000000e+00 0.000000e+00 0.000000e+00 0.000000e+00 0.000000e+00 0.000000e+00 0.000000e+00
0.000000e+00 0.000000e+00 0.000000e+00 0.000000e+00 0.000000e+00 0.000000e+00 0.000000e+00 0.000000e+00 0.000000e+00
1.833333e+00 3.500000e+00 5.166667e+00 2.000000e+00 3.666667e+00 5.333333e+00 2.166667e+00 3.833333e+00 5.500000e+00
1.833333e+00 3.500000e+00 5.166667e+00 2.000000e+00 3.666667e+00 5.333333e+00 2.166667e+00 3.833333e+00 5.500000e+00
</DataArray>
<DataArray Name="mesh_vars/FaceElements_Color" type="Float64" NumberOfComponents="1" format="ascii">
0.000000e+00
1.000000e+00
2.000000e+00
3.000000e+00
4.000000e+00
5.000000e+00
6.000000e+00
2.000000e+00
3.000000e+00
4.000000e+00
5.000000e+00
6.000000e+00
1.000000e+00
6.000000e+00
7.000000e+00
0.000000e+00
5.000000e+00
7.000000e+00
2.000000e+00
1.000000e+00
3.000000e+00
5.000000e+00
0.000000e+00
3.000000e+00
4.000000e+00
6.000000e+00
5.000000e+00
8.000000e+00
6.000000e+00
0.000000e+00
2.000000e+00
7.000000e+00
1.000000e+00
0.000000e+00
8.000000e+00
1.000000e+00
</DataArray>
<DataArray Name="mesh_vars/FaceElements_Id" type="Float64" NumberOfComponents="1" format="ascii">
2.400000e+01
2.500000e+01
2.700000e+01
2.800000e+01
5.500000e+01
5.700000e+01
5.900000e+01
2.600000e+01
2.900000e+01
3.100000e+01
3.400000e+01
3.500000e+01
3.700000e+01
3.800000e+01
3.900000e+01
4.900000e+01
5.100000e+01
5.200000e+01
3.000000e+01
3.300000e+01
4.800000e+01
5.000000e+01
3.200000e+01
4.200000e+01
4.300000e+01
4.500000e+01
4.700000e+01
3.600000e+01
4.000000e+01
4.100000e+01
5.400000e+01
5.600000e+01
4.600000e+01
4.400000e+01
5.800000e+01
5.300000e+01
</DataArray>
<DataArray Name="mesh_vars/FaceElements_Owner" type="Float64" NumberOfComponents="1" format="ascii">
0.000000e+00
0.000000e+00
0.000000e+00
0.000000e+00
0.000000e+00
0.000000e+00
0.000000e+00
0.000000e+00
0.000000e+00
0.000000e+00
0.000000e+00
0.000000e+00
0.000000e+00
0.000000e+00
0.000000e+00
0.000000e+00
0.000000e+00
0.000000e+00
0.000000e+00
0.000000e+00
0.000000e+00
0.000000e+00
0.000000e+00
0.000000e+00
0.000000e+00
0.000000e+00
0.000000e+00
0.000000e+00
0.000000e+00
0.000000e+00
0.000000e+00
0.000000e+00
0.000000e+00
0.000000e+00
0.000000e+00
0.000000e+00
</DataArray>
<DataArray Name="mesh_vars/FaceElements_Tag" type="Float64" NumberOfComponents="1" format="ascii">
2.000000e+00
2.000000e+00
2.000000e+00
2.000000e+00
1.000000e+02
1.000000e+02
1.000000e+02
2.000000e+00
2.000000e+00
2.000000e+02
2.000000e+02
2.000000e+02
2.000000e+01
2.000000e+01
2.000000e+01
1.000000e+01
1.000000e+01
1.000000e+01
2.000000e+02
2.000000e+02
1.000000e+01
1.000000e+01
2.000000e+02
1.000000e+00
1.000000e+00
1.000000e+00
1.000000e+00
2.000000e+01
2.000000e+01
2.000000e+01
1.000000e+02
1.000000e+02
1.000000e+00
1.000000e+00
1.000000e+02
1.000000e+01
</DataArray>
</CellData>
</Piece>
</UnstructuredGrid>
</VTKFile>
