<?xml version="1.0"?>
<VTKFile type="UnstructuredGrid" version="0.1">
<UnstructuredGrid>
<FieldData>
<DataArray Name="TIME" type="Float64" format="ascii" NumberOfTuples="1">
0.000000e+00
</DataArray>
</FieldData>
<FieldData>
<DataArray Name="CYCLE" type="Int32" format="ascii" NumberOfTuples="1">
0
</DataArray>
</FieldData>
<Piece NumberOfPoints="17" NumberOfCells="12">
<Points>
<DataArray NumberOfComponents="3" type="Float64" format="ascii">
1.000000e+00 1.000000e+00 0.000000e+00
1.000000e+00 6.666667e-01 0.000000e+00
1.000000e+00 3.333333e-01 0.000000e+00
1.000000e+00 0.000000e+00 0.000000e+00
6.666667e-01 0.000000e+00 0.000000e+00
3.333333e-01 0.000000e+00 0.000000e+00
0.000000e+00 0.000000e+00 0.000000e+00
0.000000e+00 1.000000e+00 0.000000e+00
0.000000e+00 6.666667e-01 0.000000e+00
0.000000e+00 3.333333e-01 0.000000e+00
3.333333e-01 1.000000e+00 0.000000e+00
6.666667e-01 1.000000e+00 0.000000e+00
7.014658e-01 2.986558e-01 0.000000e+00
3.239390e-01 2.773111e-01 0.000000e+00
3.050581e-01 6.950284e-01 0.000000e+00
7.227778e-01 6.761019e-01 0.000000e+00
5.000690e-01 5.000334e-01 0.000000e+00
</DataArray>
</Points>
<Cells>
<DataArray Name="connectivity" type="Int32" format="ascii">
1 0
0 11
2 1
3 2
4 3
5 4
6 5
9 6
7 8
10 7
8 9
11 10
</DataArray>
<DataArray Name="offsets" type="Int32" format="ascii">
2
4
6
8
10
12
14
16
18
20
22
24
</DataArray>
<DataArray Name="types" type="UInt8" format="ascii">
3
3
3
3
3
3
3
3
3
3
3
3
</DataArray>
</Cells>
<CellData>
<DataArray Name="data" type="Float64" NumberOfComponents="9" format="ascii">
1.100000e+01 2.100000e+01 0.000000e+00 1.200000e+01 2.200000e+01 0.000000e+00 0.000000e+00 0.000000e+00 0.000000e+00
9.166667e+00 1.750000e+01 0.000000e+00 1.000000e+01 1.833333e+01 0.000000e+00 0.000000e+00 0.000000e+00 0.000000e+00
1.100000e+01 2.100000e+01 0.000000e+00 1.200000e+01 2.200000e+01 0.000000e+00 0.000000e+00 0.000000e+00 0.000000e+00
1.100000e+01 2.100000e+01 0.000000e+00 1.200000e+01 2.200000e+01 0.000000e+00 0.000000e+00 0.000000e+00 0.000000e+00
9.166667e+00 1.750000e+01 0.000000e+00 1.000000e+01 1.833333e+01 0.000000e+00 0.000000e+00 0.000000e+00 0.000000e+00
5.500000e+00 1.050000e+01 0.000000e+00 6.000000e+00 1.100000e+01 0.000000e+00 0.000000e+00 0.000000e+00 0.000000e+00
1.833333e+00 3.500000e+00 0.000000e+00 2.000000e+00 3.666667e+00 0.000000e+00 0.000000e+00 0.000000e+00 0.000000e+00
0.000000e+00 0.000000e+00 0.000000e+00 0.000000e+00 0.000000e+00 0.000000e+00 0.000000e+00 0.000000e+00 0.000000e+00
0.000000e+00 0.000000e+00 0.000000e+00 0.000000e+00 0.000000e+00 0.000000e+00 0.000000e+00 0.000000e+00 0.000000e+00
1.833333e+00 3.500000e+00 0.000000e+00 2.000000e+00 3.666667e+00 0.000000e+00 0.000000e+00 0.000000e+00 0.000000e+00
0.000000e+00 0.000000e+00 0.000000e+00 0.000000e+00 0.000000e+00 0.000000e+00 0.000000e+00 0.000000e+00 0.000000e+00
5.500000e+00 1.050000e+01 0.000000e+00 6.000000e+00 1.100000e+01 0.000000e+00 0.000000e+00 0.000000e+00 0.000000e+00
</DataArray>
<DataArray Name="mesh_vars/FaceElements_Color" type="Float64" NumberOfComponents="1" format="ascii">
0.000000e+00
1.000000e+00
1.000000e+00
0.000000e+00
1.000000e+00
0.000000e+00
1.000000e+00
0.000000e+00
0.000000e+00
1.000000e+00
1.000000e+00
0.000000e+00
</DataArray>
<DataArray Name="mesh_vars/FaceElements_Id" type="Float64" NumberOfComponents="1" format="ascii">
2.000000e+01
3.100000e+01
2.100000e+01
2.200000e+01
2.300000e+01
2.400000e+01
2.500000e+01
2.800000e+01
2.600000e+01
2.900000e+01
2.700000e+01
3.000000e+01
</DataArray>
<DataArray Name="mesh_vars/FaceElements_Owner" type="Float64" NumberOfComponents="1" format="ascii">
0.000000e+00
0.000000e+00
0.000000e+00
0.000000e+00
0.000000e+00
0.000000e+00
0.000000e+00
0.000000e+00
0.000000e+00
0.000000e+00
0.000000e+00
0.000000e+00
</DataArray>
<DataArray Name="mesh_vars/FaceElements_Tag" type="Float64" NumberOfComponents="1" format="ascii">
2.000000e+00
2.000000e+01
2.000000e+00
2.000000e+00
1.000000e+01
1.000000e+01
1.000000e+01
1.000000e+00
1.000000e+00
2.000000e+01
1.000000e+00
2.000000e+01
</DataArray>
</CellData>
</Piece>
</UnstructuredGrid>
</VTKFile>
