# vtk DataFile Version 2.0 
Flinders_ranges.vtk
ASCII
DATASET POLYDATA
POINTS 117 float
137.35 -35.5 0.
137.44 -35.5 0.
137.53 -35.51 0.
137.6 -35.51 0.
137.41 -35.65 0.
137.49 -35.67 0.
137.6 -35.69 0.
137.63 -35.69 0.
137.72 -35.68 0.
137.81 -35.67 0.
137.91 -35.65 0.
138.1 -35.55 0.
138.15 -35.5 0.
138.25 -35.43 0.
138.32 -35.37 0.
138.39 -35.32 0.
138.54 -35.26 0.
138.63 -35.18 0.
138.68 -35.12 0.
138.74 -34.99 0.
138.11 -35.43 0.
138.28 -35.31 0.
138.4 -35.17 0.
138.53 -35.08 0.
138.59 -35.04 0.
138.66 -34.97 0.
138.09 -35.41 0.
138.19 -35.33 0.
138.22 -35.25 0.
138.09 -35.37 0.
138.36 -35.13 0.
138.52 -35 0.
138.7 -34.85 0.
138.77 -34.73 0.
139.05 -35.24 0.
139.09 -35.17 0.
139.11 -35.06 0.
139.1 -35 0.
139.22 -35.29 0.
139.19 -35.06 0.
139.16 -34.97 0.
139.16 -34.88 0.
139.22 -34.67 0.
139.21 -34.45 0.
139.18 -34.27 0.
139.13 -34 0.
139.29 -34.01 0.
139.3 -33.87 0.
139.31 -33.62 0.
139.32 -33.6 0.
138.11 -35.05 0.
138.37 -34.99 0.
138.43 -35 0.
138.51 -34.95 0.
138.6 -34.88 0.
138.64 -34.8 0.
138.68 -34.68 0.
138.73 -34.58 0.
138.73 -34.54 0.
138.36 -34.94 0.
138.7 -34.6 0.
138.7 -34.4 0.
138.65 -34.24 0.
138.62 -34.19 0.
138.58 -34.05 0.
139.32 -34.64 0.
139.36 -34.28 0.
139.42 -33.97 0.
139.45 -33.82 0.
139.52 -33.62 0.
139.53 -34.54 0.
139.52 -34.46 0.
139.54 -34.38 0.
139.54 -34.31 0.
139.62 -34.12 0.
139.69 -33.57 0.
140.88 -35.1 0.
140.29 -34.62 0.
140.13 -34.31 0.
140.42 -34.07 0.
140.52 -33.95 0.
140.64 -33.7 0.
140.73 -33.52 0.
140.83 -33.41 0.
140.93 -33.33 0.
138.37 -34.79 0.
138.49 -34.68 0.
138.52 -34.61 0.
138.52 -34.41 0.
138.49 -34 0.
138.47 -33.77 0.
138.22 -34.69 0.
138.27 -34.46 0.
138.3 -34.26 0.
138.31 -34.13 0.
138.32 -34.06 0.
138.31 -33.71 0.
138.3 -33.59 0.
138.15 -34.31 0.
138.21 -34.16 0.
138.24 -33.86 0.
138.48 -34.05 0.
138.3 -33.57 0.
138.28 -33.43 0.
138.11 -33.08 0.
138.06 -32.92 0.
138.05 -32.85 0.
137.92 -32.65 0.
137.93 -32.35 0.
137.98 -32.14 0.
138.1 -31.93 0.
137.9 -34.48 0.
138.07 -34.13 0.
138.1 -34.02 0.
138.18 -33.85 0.
138.22 -33.68 0.
138.29 -33.52 0.
LINES 98 294
2 0 1
2 1 2
2 2 3
2 4 5
2 5 6
2 6 7
2 7 8
2 8 9
2 9 10
2 11 12
2 12 13
2 13 14
2 14 15
2 15 16
2 16 17
2 17 18
2 18 19
2 20 21
2 21 22
2 22 23
2 23 24
2 24 25
2 26 27
2 27 28
2 29 28
2 28 30
2 30 31
2 31 32
2 32 33
2 34 35
2 35 36
2 36 37
2 38 39
2 39 40
2 40 41
2 41 42
2 42 43
2 43 44
2 44 45
2 46 47
2 47 48
2 48 49
2 50 51
2 51 52
2 52 53
2 53 54
2 54 55
2 55 56
2 56 57
2 57 58
2 59 54
2 60 61
2 61 62
2 62 63
2 63 64
2 65 66
2 66 67
2 67 68
2 68 69
2 70 71
2 71 72
2 72 73
2 73 74
2 74 75
2 76 77
2 78 79
2 79 80
2 80 81
2 81 82
2 82 83
2 83 84
2 85 86
2 86 87
2 87 88
2 88 89
2 89 90
2 91 92
2 92 93
2 93 94
2 94 95
2 95 96
2 96 97
2 98 99
2 99 100
2 101 102
2 102 103
2 103 104
2 104 105
2 105 106
2 106 107
2 107 108
2 108 109
2 109 110
2 111 112
2 112 113
2 113 114
2 114 115
2 115 116
CELL_DATA 98
SCALARS Faults int
LOOKUP_TABLE default
3
3
3
6
6
6
6
6
6
9
9
9
9
9
9
9
9
12
12
12
12
12
15
15
18
18
18
18
18
21
21
21
24
24
24
24
24
24
24
27
27
27
30
30
30
30
30
30
30
30
33
36
36
36
36
39
39
39
39
42
42
42
42
42
45
48
48
48
48
48
48
51
51
51
51
51
54
54
54
54
54
54
57
57
60
60
60
60
60
60
60
60
60
63
63
63
63
63
