<?xml version="1.0"?>
<VTKFile type="UnstructuredGrid" version="0.1">
<UnstructuredGrid>
<FieldData>
<DataArray Name="TIME" type="Float64" format="ascii" NumberOfTuples="1">
0.000000e+00
</DataArray>
</FieldData>
<FieldData>
<DataArray Name="CYCLE" type="Int32" format="ascii" NumberOfTuples="1">
0
</DataArray>
</FieldData>
<Piece NumberOfPoints="2816" NumberOfCells="2250">
<Points>
<DataArray NumberOfComponents="3" type="Float64" format="ascii">
-2.500000e+02 -2.500000e+02 2.000000e+03
-2.500000e+02 -2.500000e+02 1.600000e+03
-2.500000e+02 -2.500000e+02 1.200000e+03
-2.500000e+02 -2.500000e+02 8.000000e+02
-2.500000e+02 -2.500000e+02 4.000000e+02
-2.500000e+02 -2.500000e+02 0.000000e+00
-2.500000e+02 -2.500000e+02 -4.000000e+02
-2.500000e+02 -2.500000e+02 -8.000000e+02
-2.500000e+02 -2.500000e+02 -1.200000e+03
-2.500000e+02 -2.500000e+02 -1.600000e+03
-2.500000e+02 -2.500000e+02 -2.000000e+03
-2.166667e+02 -2.500000e+02 2.000000e+03
-2.166667e+02 -2.500000e+02 1.600000e+03
-2.166667e+02 -2.500000e+02 1.200000e+03
-2.166667e+02 -2.500000e+02 8.000000e+02
-2.166667e+02 -2.500000e+02 4.000000e+02
-2.166667e+02 -2.500000e+02 0.000000e+00
-2.166667e+02 -2.500000e+02 -4.000000e+02
-2.166667e+02 -2.500000e+02 -8.000000e+02
-2.166667e+02 -2.500000e+02 -1.200000e+03
-2.166667e+02 -2.500000e+02 -1.600000e+03
-2.166667e+02 -2.500000e+02 -2.000000e+03
-1.833333e+02 -2.500000e+02 2.000000e+03
-1.833333e+02 -2.500000e+02 1.600000e+03
-1.833333e+02 -2.500000e+02 1.200000e+03
-1.833333e+02 -2.500000e+02 8.000000e+02
-1.833333e+02 -2.500000e+02 4.000000e+02
-1.833333e+02 -2.500000e+02 0.000000e+00
-1.833333e+02 -2.500000e+02 -4.000000e+02
-1.833333e+02 -2.500000e+02 -8.000000e+02
-1.833333e+02 -2.500000e+02 -1.200000e+03
-1.833333e+02 -2.500000e+02 -1.600000e+03
-1.833333e+02 -2.500000e+02 -2.000000e+03
-1.500000e+02 -2.500000e+02 2.000000e+03
-1.500000e+02 -2.500000e+02 1.600000e+03
-1.500000e+02 -2.500000e+02 1.200000e+03
-1.500000e+02 -2.500000e+02 8.000000e+02
-1.500000e+02 -2.500000e+02 4.000000e+02
-1.500000e+02 -2.500000e+02 0.000000e+00
-1.500000e+02 -2.500000e+02 -4.000000e+02
-1.500000e+02 -2.500000e+02 -8.000000e+02
-1.500000e+02 -2.500000e+02 -1.200000e+03
-1.500000e+02 -2.500000e+02 -1.600000e+03
-1.500000e+02 -2.500000e+02 -2.000000e+03
-1.166667e+02 -2.500000e+02 2.000000e+03
-1.166667e+02 -2.500000e+02 1.600000e+03
-1.166667e+02 -2.500000e+02 1.200000e+03
-1.166667e+02 -2.500000e+02 8.000000e+02
-1.166667e+02 -2.500000e+02 4.000000e+02
-1.166667e+02 -2.500000e+02 0.000000e+00
-1.166667e+02 -2.500000e+02 -4.000000e+02
-1.166667e+02 -2.500000e+02 -8.000000e+02
-1.166667e+02 -2.500000e+02 -1.200000e+03
-1.166667e+02 -2.500000e+02 -1.600000e+03
-1.166667e+02 -2.500000e+02 -2.000000e+03
-8.333334e+01 -2.500000e+02 2.000000e+03
-8.333334e+01 -2.500000e+02 1.600000e+03
-8.333334e+01 -2.500000e+02 1.200000e+03
-8.333334e+01 -2.500000e+02 8.000000e+02
-8.333334e+01 -2.500000e+02 4.000000e+02
-8.333334e+01 -2.500000e+02 0.000000e+00
-8.333334e+01 -2.500000e+02 -4.000000e+02
-8.333334e+01 -2.500000e+02 -8.000000e+02
-8.333334e+01 -2.500000e+02 -1.200000e+03
-8.333334e+01 -2.500000e+02 -1.600000e+03
-8.333334e+01 -2.500000e+02 -2.000000e+03
-5.000000e+01 -2.500000e+02 2.000000e+03
-5.000000e+01 -2.500000e+02 1.600000e+03
-5.000000e+01 -2.500000e+02 1.200000e+03
-5.000000e+01 -2.500000e+02 8.000000e+02
-5.000000e+01 -2.500000e+02 4.000000e+02
-5.000000e+01 -2.500000e+02 0.000000e+00
-5.000000e+01 -2.500000e+02 -4.000000e+02
-5.000000e+01 -2.500000e+02 -8.000000e+02
-5.000000e+01 -2.500000e+02 -1.200000e+03
-5.000000e+01 -2.500000e+02 -1.600000e+03
-5.000000e+01 -2.500000e+02 -2.000000e+03
-1.666667e+01 -2.500000e+02 2.000000e+03
-1.666667e+01 -2.500000e+02 1.600000e+03
-1.666667e+01 -2.500000e+02 1.200000e+03
-1.666667e+01 -2.500000e+02 8.000000e+02
-1.666667e+01 -2.500000e+02 4.000000e+02
-1.666667e+01 -2.500000e+02 0.000000e+00
-1.666667e+01 -2.500000e+02 -4.000000e+02
-1.666667e+01 -2.500000e+02 -8.000000e+02
-1.666667e+01 -2.500000e+02 -1.200000e+03
-1.666667e+01 -2.500000e+02 -1.600000e+03
-1.666667e+01 -2.500000e+02 -2.000000e+03
1.666667e+01 -2.500000e+02 2.000000e+03
1.666667e+01 -2.500000e+02 1.600000e+03
1.666667e+01 -2.500000e+02 1.200000e+03
1.666667e+01 -2.500000e+02 8.000000e+02
1.666667e+01 -2.500000e+02 4.000000e+02
1.666667e+01 -2.500000e+02 0.000000e+00
1.666667e+01 -2.500000e+02 -4.000000e+02
1.666667e+01 -2.500000e+02 -8.000000e+02
1.666667e+01 -2.500000e+02 -1.200000e+03
1.666667e+01 -2.500000e+02 -1.600000e+03
1.666667e+01 -2.500000e+02 -2.000000e+03
5.000000e+01 -2.500000e+02 2.000000e+03
5.000000e+01 -2.500000e+02 1.600000e+03
5.000000e+01 -2.500000e+02 1.200000e+03
5.000000e+01 -2.500000e+02 8.000000e+02
5.000000e+01 -2.500000e+02 4.000000e+02
5.000000e+01 -2.500000e+02 0.000000e+00
5.000000e+01 -2.500000e+02 -4.000000e+02
5.000000e+01 -2.500000e+02 -8.000000e+02
5.000000e+01 -2.500000e+02 -1.200000e+03
5.000000e+01 -2.500000e+02 -1.600000e+03
5.000000e+01 -2.500000e+02 -2.000000e+03
8.333334e+01 -2.500000e+02 2.000000e+03
8.333334e+01 -2.500000e+02 1.600000e+03
8.333334e+01 -2.500000e+02 1.200000e+03
8.333334e+01 -2.500000e+02 8.000000e+02
8.333334e+01 -2.500000e+02 4.000000e+02
8.333334e+01 -2.500000e+02 0.000000e+00
8.333334e+01 -2.500000e+02 -4.000000e+02
8.333334e+01 -2.500000e+02 -8.000000e+02
8.333334e+01 -2.500000e+02 -1.200000e+03
8.333334e+01 -2.500000e+02 -1.600000e+03
8.333334e+01 -2.500000e+02 -2.000000e+03
1.166667e+02 -2.500000e+02 2.000000e+03
1.166667e+02 -2.500000e+02 1.600000e+03
1.166667e+02 -2.500000e+02 1.200000e+03
1.166667e+02 -2.500000e+02 8.000000e+02
1.166667e+02 -2.500000e+02 4.000000e+02
1.166667e+02 -2.500000e+02 0.000000e+00
1.166667e+02 -2.500000e+02 -4.000000e+02
1.166667e+02 -2.500000e+02 -8.000000e+02
1.166667e+02 -2.500000e+02 -1.200000e+03
1.166667e+02 -2.500000e+02 -1.600000e+03
1.166667e+02 -2.500000e+02 -2.000000e+03
1.500000e+02 -2.500000e+02 2.000000e+03
1.500000e+02 -2.500000e+02 1.600000e+03
1.500000e+02 -2.500000e+02 1.200000e+03
1.500000e+02 -2.500000e+02 8.000000e+02
1.500000e+02 -2.500000e+02 4.000000e+02
1.500000e+02 -2.500000e+02 0.000000e+00
1.500000e+02 -2.500000e+02 -4.000000e+02
1.500000e+02 -2.500000e+02 -8.000000e+02
1.500000e+02 -2.500000e+02 -1.200000e+03
1.500000e+02 -2.500000e+02 -1.600000e+03
1.500000e+02 -2.500000e+02 -2.000000e+03
1.833333e+02 -2.500000e+02 2.000000e+03
1.833333e+02 -2.500000e+02 1.600000e+03
1.833333e+02 -2.500000e+02 1.200000e+03
1.833333e+02 -2.500000e+02 8.000000e+02
1.833333e+02 -2.500000e+02 4.000000e+02
1.833333e+02 -2.500000e+02 0.000000e+00
1.833333e+02 -2.500000e+02 -4.000000e+02
1.833333e+02 -2.500000e+02 -8.000000e+02
1.833333e+02 -2.500000e+02 -1.200000e+03
1.833333e+02 -2.500000e+02 -1.600000e+03
1.833333e+02 -2.500000e+02 -2.000000e+03
2.166667e+02 -2.500000e+02 2.000000e+03
2.166667e+02 -2.500000e+02 1.600000e+03
2.166667e+02 -2.500000e+02 1.200000e+03
2.166667e+02 -2.500000e+02 8.000000e+02
2.166667e+02 -2.500000e+02 4.000000e+02
2.166667e+02 -2.500000e+02 0.000000e+00
2.166667e+02 -2.500000e+02 -4.000000e+02
2.166667e+02 -2.500000e+02 -8.000000e+02
2.166667e+02 -2.500000e+02 -1.200000e+03
2.166667e+02 -2.500000e+02 -1.600000e+03
2.166667e+02 -2.500000e+02 -2.000000e+03
2.500000e+02 -2.500000e+02 2.000000e+03
2.500000e+02 -2.500000e+02 1.600000e+03
2.500000e+02 -2.500000e+02 1.200000e+03
2.500000e+02 -2.500000e+02 8.000000e+02
2.500000e+02 -2.500000e+02 4.000000e+02
2.500000e+02 -2.500000e+02 0.000000e+00
2.500000e+02 -2.500000e+02 -4.000000e+02
2.500000e+02 -2.500000e+02 -8.000000e+02
2.500000e+02 -2.500000e+02 -1.200000e+03
2.500000e+02 -2.500000e+02 -1.600000e+03
2.500000e+02 -2.500000e+02 -2.000000e+03
-2.500000e+02 -2.166667e+02 2.000000e+03
-2.500000e+02 -2.166667e+02 1.600000e+03
-2.500000e+02 -2.166667e+02 1.200000e+03
-2.500000e+02 -2.166667e+02 8.000000e+02
-2.500000e+02 -2.166667e+02 4.000000e+02
-2.500000e+02 -2.166667e+02 0.000000e+00
-2.500000e+02 -2.166667e+02 -4.000000e+02
-2.500000e+02 -2.166667e+02 -8.000000e+02
-2.500000e+02 -2.166667e+02 -1.200000e+03
-2.500000e+02 -2.166667e+02 -1.600000e+03
-2.500000e+02 -2.166667e+02 -2.000000e+03
-2.166667e+02 -2.166667e+02 2.000000e+03
-2.166667e+02 -2.166667e+02 1.600000e+03
-2.166667e+02 -2.166667e+02 1.200000e+03
-2.166667e+02 -2.166667e+02 8.000000e+02
-2.166667e+02 -2.166667e+02 4.000000e+02
-2.166667e+02 -2.166667e+02 0.000000e+00
-2.166667e+02 -2.166667e+02 -4.000000e+02
-2.166667e+02 -2.166667e+02 -8.000000e+02
-2.166667e+02 -2.166667e+02 -1.200000e+03
-2.166667e+02 -2.166667e+02 -1.600000e+03
-2.166667e+02 -2.166667e+02 -2.000000e+03
-1.833333e+02 -2.166667e+02 2.000000e+03
-1.833333e+02 -2.166667e+02 1.600000e+03
-1.833333e+02 -2.166667e+02 1.200000e+03
-1.833333e+02 -2.166667e+02 8.000000e+02
-1.833333e+02 -2.166667e+02 4.000000e+02
-1.833333e+02 -2.166667e+02 0.000000e+00
-1.833333e+02 -2.166667e+02 -4.000000e+02
-1.833333e+02 -2.166667e+02 -8.000000e+02
-1.833333e+02 -2.166667e+02 -1.200000e+03
-1.833333e+02 -2.166667e+02 -1.600000e+03
-1.833333e+02 -2.166667e+02 -2.000000e+03
-1.500000e+02 -2.166667e+02 2.000000e+03
-1.500000e+02 -2.166667e+02 1.600000e+03
-1.500000e+02 -2.166667e+02 1.200000e+03
-1.500000e+02 -2.166667e+02 8.000000e+02
-1.500000e+02 -2.166667e+02 4.000000e+02
-1.500000e+02 -2.166667e+02 0.000000e+00
-1.500000e+02 -2.166667e+02 -4.000000e+02
-1.500000e+02 -2.166667e+02 -8.000000e+02
-1.500000e+02 -2.166667e+02 -1.200000e+03
-1.500000e+02 -2.166667e+02 -1.600000e+03
-1.500000e+02 -2.166667e+02 -2.000000e+03
-1.166667e+02 -2.166667e+02 2.000000e+03
-1.166667e+02 -2.166667e+02 1.600000e+03
-1.166667e+02 -2.166667e+02 1.200000e+03
-1.166667e+02 -2.166667e+02 8.000000e+02
-1.166667e+02 -2.166667e+02 4.000000e+02
-1.166667e+02 -2.166667e+02 0.000000e+00
-1.166667e+02 -2.166667e+02 -4.000000e+02
-1.166667e+02 -2.166667e+02 -8.000000e+02
-1.166667e+02 -2.166667e+02 -1.200000e+03
-1.166667e+02 -2.166667e+02 -1.600000e+03
-1.166667e+02 -2.166667e+02 -2.000000e+03
-8.333334e+01 -2.166667e+02 2.000000e+03
[...]
<PointData>
<DataArray Name="grav_pot" type="Float64" NumberOfComponents="1" format="ascii">
9.540582e-02
9.540657e-02
9.540229e-02
9.542906e-02
9.526554e-02
9.100948e-02
7.618434e-02
5.726666e-02
3.815870e-02
1.908176e-02
0.000000e+00
9.540582e-02
9.540656e-02
9.540237e-02
9.542842e-02
9.526993e-02
9.103418e-02
7.618873e-02
5.726603e-02
3.815878e-02
1.908175e-02
0.000000e+00
9.540582e-02
9.540654e-02
9.540261e-02
9.542661e-02
9.528239e-02
9.110490e-02
7.620119e-02
5.726422e-02
3.815902e-02
1.908172e-02
0.000000e+00
9.540582e-02
9.540650e-02
9.540296e-02
9.542391e-02
9.530094e-02
9.121149e-02
7.621974e-02
5.726151e-02
3.815937e-02
1.908169e-02
0.000000e+00
9.540582e-02
9.540646e-02
9.540338e-02
9.542074e-02
9.532250e-02
9.133747e-02
7.624130e-02
5.725835e-02
3.815980e-02
1.908164e-02
0.000000e+00
9.540583e-02
9.540641e-02
9.540380e-02
9.541765e-02
9.534338e-02
9.146161e-02
7.626219e-02
5.725525e-02
3.816021e-02
1.908159e-02
0.000000e+00
9.540584e-02
9.540638e-02
9.540413e-02
9.541519e-02
9.535990e-02
9.156115e-02
7.627870e-02
5.725280e-02
3.816055e-02
1.908156e-02
0.000000e+00
9.540584e-02
9.540635e-02
9.540432e-02
9.541383e-02
9.536900e-02
9.161658e-02
7.628781e-02
5.725144e-02
3.816073e-02
1.908153e-02
0.000000e+00
9.540584e-02
9.540635e-02
9.540432e-02
9.541383e-02
9.536900e-02
9.161658e-02
7.628781e-02
5.725144e-02
3.816073e-02
1.908153e-02
0.000000e+00
9.540584e-02
9.540638e-02
9.540413e-02
9.541519e-02
9.535990e-02
9.156115e-02
7.627870e-02
5.725280e-02
3.816055e-02
1.908156e-02
0.000000e+00
9.540583e-02
9.540641e-02
9.540380e-02
9.541765e-02
9.534338e-02
9.146161e-02
7.626219e-02
5.725525e-02
3.816021e-02
1.908159e-02
0.000000e+00
9.540582e-02
9.540646e-02
9.540338e-02
9.542074e-02
9.532250e-02
9.133747e-02
7.624130e-02
5.725835e-02
3.815980e-02
1.908164e-02
0.000000e+00
9.540582e-02
9.540650e-02
9.540296e-02
9.542391e-02
9.530094e-02
9.121149e-02
7.621974e-02
5.726151e-02
3.815937e-02
1.908169e-02
0.000000e+00
9.540582e-02
9.540654e-02
9.540261e-02
9.542661e-02
9.528239e-02
9.110490e-02
7.620119e-02
5.726422e-02
3.815902e-02
1.908172e-02
0.000000e+00
9.540582e-02
9.540656e-02
9.540237e-02
9.542842e-02
9.526993e-02
9.103418e-02
7.618873e-02
5.726603e-02
3.815878e-02
1.908175e-02
0.000000e+00
9.540582e-02
9.540657e-02
9.540229e-02
9.542906e-02
9.526554e-02
9.100948e-02
7.618434e-02
5.726666e-02
3.815870e-02
1.908176e-02
0.000000e+00
9.540582e-02
9.540656e-02
9.540237e-02
9.542842e-02
9.526993e-02
9.103418e-02
7.618873e-02
5.726603e-02
3.815878e-02
1.908175e-02
0.000000e+00
9.540582e-02
9.540655e-02
9.540246e-02
9.542775e-02
9.527451e-02
9.106088e-02
7.619331e-02
5.726536e-02
3.815887e-02
1.908174e-02
0.000000e+00
9.540582e-02
9.540652e-02
9.540272e-02
9.542582e-02
9.528754e-02
9.113757e-02
7.620634e-02
5.726343e-02
3.815913e-02
1.908171e-02
0.000000e+00
9.540583e-02
9.540648e-02
9.540311e-02
9.542293e-02
9.530697e-02
9.125393e-02
7.622577e-02
5.726054e-02
3.815952e-02
1.908167e-02
0.000000e+00
9.540584e-02
9.540643e-02
9.540358e-02
9.541954e-02
9.532963e-02
9.139267e-02
7.624843e-02
5.725714e-02
3.815999e-02
1.908161e-02
0.000000e+00
9.540585e-02
9.540637e-02
9.540404e-02
9.541621e-02
9.535164e-02
9.153064e-02
7.627045e-02
5.725382e-02
3.816046e-02
1.908155e-02
0.000000e+00
9.540585e-02
9.540632e-02
9.540442e-02
9.541356e-02
9.536909e-02
9.164217e-02
7.628789e-02
5.725116e-02
3.816084e-02
1.908151e-02
0.000000e+00
9.540585e-02
9.540629e-02
9.540463e-02
9.541208e-02
9.537872e-02
9.170463e-02
7.629752e-02
5.724969e-02
3.816105e-02
1.908148e-02
0.000000e+00
9.540585e-02
9.540629e-02
9.540463e-02
9.541208e-02
9.537872e-02
9.170463e-02
7.629752e-02
5.724969e-02
3.816105e-02
1.908148e-02
0.000000e+00
9.540585e-02
9.540632e-02
9.540442e-02
9.541356e-02
9.536909e-02
9.164217e-02
7.628789e-02
5.725116e-02
3.816084e-02
1.908151e-02
0.000000e+00
9.540585e-02
9.540637e-02
9.540404e-02
9.541621e-02
9.535164e-02
9.153064e-02
7.627045e-02
5.725382e-02
3.816046e-02
1.908155e-02
0.000000e+00
9.540584e-02
9.540643e-02
9.540358e-02
9.541954e-02
9.532963e-02
9.139267e-02
7.624843e-02
5.725714e-02
3.815999e-02
1.908161e-02
0.000000e+00
9.540583e-02
9.540648e-02
9.540311e-02
9.542293e-02
9.530697e-02
9.125393e-02
7.622577e-02
5.726054e-02
3.815952e-02
1.908167e-02
0.000000e+00
9.540582e-02
9.540652e-02
9.540272e-02
9.542582e-02
9.528754e-02
9.113757e-02
7.620634e-02
5.726343e-02
3.815913e-02
1.908171e-02
0.000000e+00
9.540582e-02
9.540655e-02
9.540246e-02
9.542775e-02
9.527451e-02
9.106088e-02
7.619331e-02
5.726536e-02
3.815887e-02
1.908174e-02
0.000000e+00
9.540582e-02
9.540656e-02
9.540237e-02
9.542842e-02
9.526993e-02
9.103418e-02
7.618873e-02
5.726603e-02
3.815878e-02
1.908175e-02
0.000000e+00
9.540582e-02
9.540654e-02
9.540261e-02
9.542661e-02
9.528239e-02
9.110490e-02
7.620119e-02
5.726422e-02
3.815902e-02
1.908172e-02
0.000000e+00
9.540582e-02
9.540652e-02
9.540272e-02
9.542582e-02
9.528754e-02
9.113757e-02
7.620634e-02
5.726343e-02
3.815913e-02
1.908171e-02
0.000000e+00
9.540583e-02
9.540648e-02
9.540305e-02
9.542356e-02
9.530224e-02
9.123233e-02
7.622105e-02
5.726116e-02
3.815946e-02
1.908167e-02
0.000000e+00
9.540585e-02
9.540641e-02
9.540355e-02
9.542012e-02
9.532429e-02
9.137886e-02
7.624310e-02
5.725773e-02
3.815996e-02
1.908160e-02
0.000000e+00
9.540586e-02
9.540633e-02
9.540416e-02
9.541605e-02
9.535019e-02
9.155811e-02
7.626900e-02
5.725365e-02
3.816057e-02
1.908152e-02
0.000000e+00
9.540588e-02
9.540624e-02
9.540478e-02
9.541201e-02
9.537558e-02
9.174123e-02
7.629438e-02
5.724961e-02
3.816119e-02
1.908143e-02
0.000000e+00
9.540591e-02
9.540617e-02
9.540528e-02
9.540875e-02
9.539583e-02
9.189280e-02
7.631463e-02
5.724636e-02
3.816170e-02
1.908136e-02
0.000000e+00
9.540591e-02
9.540612e-02
9.540557e-02
9.540693e-02
9.540708e-02
9.197898e-02
7.632588e-02
5.724454e-02
3.816198e-02
1.908132e-02
0.000000e+00
9.540591e-02
9.540612e-02
9.540557e-02
9.540693e-02
9.540708e-02
9.197898e-02
7.632588e-02
5.724454e-02
3.816198e-02
1.908132e-02
0.000000e+00
9.540591e-02
9.540617e-02
9.540528e-02
9.540875e-02
9.539583e-02
9.189280e-02
7.631463e-02
5.724636e-02
3.816170e-02
1.908136e-02
0.000000e+00
9.540588e-02
9.540624e-02
9.540478e-02
9.541201e-02
9.537558e-02
9.174123e-02
7.629438e-02
5.724961e-02
3.816119e-02
1.908143e-02
0.000000e+00
9.540586e-02
9.540633e-02
9.540416e-02
9.541605e-02
9.535019e-02
9.155811e-02
7.626900e-02
5.725365e-02
3.816057e-02
1.908152e-02
0.000000e+00
9.540585e-02
9.540641e-02
9.540355e-02
9.542012e-02
9.532429e-02
9.137886e-02
7.624310e-02
5.725773e-02
3.815996e-02
1.908160e-02
0.000000e+00
9.540583e-02
9.540648e-02
9.540305e-02
9.542356e-02
9.530224e-02
9.123233e-02
7.622105e-02
5.726116e-02
3.815946e-02
1.908167e-02
0.000000e+00
9.540582e-02
9.540652e-02
9.540272e-02
9.542582e-02
9.528754e-02
9.113757e-02
7.620634e-02
5.726343e-02
3.815913e-02
1.908171e-02
0.000000e+00
9.540582e-02
9.540654e-02
9.540261e-02
9.542661e-02
9.528239e-02
9.110490e-02
7.620119e-02
5.726422e-02
3.815902e-02
1.908172e-02
0.000000e+00
9.540582e-02
9.540650e-02
9.540296e-02
9.542391e-02
9.530094e-02
9.121149e-02
7.621974e-02
5.726151e-02
3.815937e-02
1.908169e-02
0.000000e+00
9.540583e-02
9.540648e-02
9.540311e-02
9.542293e-02
9.530697e-02
9.125393e-02
7.622577e-02
5.726054e-02
3.815952e-02
1.908167e-02
0.000000e+00
9.540585e-02
9.540641e-02
9.540355e-02
9.542012e-02
9.532429e-02
9.137886e-02
7.624310e-02
5.725773e-02
3.815996e-02
1.908160e-02
0.000000e+00
9.540588e-02
9.540631e-02
9.540424e-02
9.541582e-02
9.535049e-02
9.157760e-02
7.626929e-02
5.725343e-02
3.816065e-02
1.908150e-02
0.000000e+00
9.540591e-02
9.540617e-02
9.540509e-02
9.541063e-02
9.538163e-02
9.183116e-02
7.630043e-02
5.724823e-02
3.816149e-02
1.908137e-02
0.000000e+00
9.540596e-02
9.540603e-02
9.540596e-02
9.540539e-02
9.541254e-02
9.210352e-02
7.633135e-02
5.724300e-02
3.816237e-02
1.908123e-02
0.000000e+00
9.540600e-02
9.540590e-02
9.540669e-02
9.540112e-02
9.543750e-02
9.233738e-02
7.635630e-02
5.723872e-02
3.816310e-02
1.908111e-02
0.000000e+00
9.540603e-02
9.540582e-02
9.540711e-02
9.539870e-02
9.545144e-02
9.247401e-02
7.637024e-02
5.723631e-02
3.816351e-02
1.908104e-02
0.000000e+00
9.540603e-02
9.540582e-02
9.540711e-02
9.539870e-02
9.545144e-02
9.247401e-02
7.637024e-02
5.723631e-02
3.816351e-02
1.908104e-02
0.000000e+00
9.540600e-02
9.540590e-02
9.540669e-02
9.540112e-02
9.543750e-02
9.233738e-02
7.635630e-02
5.723872e-02
3.816310e-02
1.908111e-02
0.000000e+00
9.540596e-02
9.540603e-02
9.540596e-02
9.540539e-02
9.541254e-02
9.210352e-02
7.633135e-02
5.724300e-02
3.816237e-02
1.908123e-02
0.000000e+00
9.540591e-02
9.540617e-02
9.540509e-02
9.541063e-02
9.538163e-02
9.183116e-02
7.630043e-02
5.724823e-02
3.816149e-02
1.908137e-02
0.000000e+00
9.540588e-02
9.540631e-02
9.540424e-02
9.541582e-02
9.535049e-02
9.157760e-02
7.626929e-02
5.725343e-02
3.816065e-02
1.908150e-02
0.000000e+00
9.540585e-02
9.540641e-02
9.540355e-02
9.542012e-02
9.532429e-02
9.137886e-02
7.624310e-02
5.725773e-02
3.815996e-02
1.908160e-02
0.000000e+00
9.540583e-02
9.540648e-02
9.540311e-02
9.542293e-02
9.530697e-02
9.125393e-02
7.622577e-02
5.726054e-02
3.815952e-02
1.908167e-02
0.000000e+00
9.540582e-02
9.540650e-02
9.540296e-02
9.542391e-02
9.530094e-02
9.121149e-02
7.621974e-02
5.726151e-02
3.815937e-02
1.908169e-02
0.000000e+00
9.540582e-02
9.540646e-02
9.540338e-02
9.542074e-02
9.532250e-02
9.133747e-02
7.624130e-02
5.725835e-02
3.815980e-02
1.908164e-02
0.000000e+00
9.540584e-02
9.540643e-02
9.540358e-02
9.541954e-02
9.532963e-02
9.139267e-02
7.624843e-02
5.725714e-02
3.815999e-02
1.908161e-02
0.000000e+00
9.540586e-02
9.540633e-02
9.540416e-02
9.541605e-02
9.535019e-02
9.155811e-02
7.626900e-02
5.725365e-02
3.816057e-02
1.908152e-02
0.000000e+00
9.540591e-02
9.540617e-02
9.540509e-02
9.541063e-02
9.538163e-02
9.183116e-02
7.630043e-02
5.724823e-02
3.816149e-02
1.908137e-02
0.000000e+00
9.540598e-02
9.540597e-02
9.540625e-02
9.540397e-02
9.541955e-02
9.219869e-02
7.633835e-02
5.724158e-02
3.816266e-02
1.908117e-02
0.000000e+00
9.540606e-02
9.540574e-02
9.540748e-02
9.539712e-02
9.545777e-02
9.262616e-02
7.637657e-02
5.723473e-02
3.816389e-02
1.908096e-02
0.000000e+00
9.540614e-02
9.540553e-02
9.540852e-02
9.539144e-02
9.548901e-02
9.303001e-02
7.640781e-02
5.722905e-02
3.816493e-02
1.908077e-02
0.000000e+00
9.540618e-02
9.540542e-02
9.540912e-02
9.538823e-02
9.550653e-02
9.325847e-02
7.642533e-02
5.722583e-02
3.816552e-02
1.908066e-02
0.000000e+00
9.540618e-02
9.540542e-02
9.540912e-02
9.538823e-02
9.550653e-02
9.325847e-02
7.642533e-02
5.722583e-02
3.816552e-02
1.908066e-02
0.000000e+00
9.540614e-02
9.540553e-02
9.540852e-02
9.539144e-02
9.548901e-02
9.303001e-02
7.640781e-02
5.722905e-02
3.816493e-02
1.908077e-02
0.000000e+00
9.540606e-02
9.540574e-02
9.540748e-02
9.539712e-02
9.545777e-02
9.262616e-02
7.637657e-02
5.723473e-02
3.816389e-02
1.908096e-02
0.000000e+00
9.540598e-02
9.540597e-02
9.540625e-02
9.540397e-02
9.541955e-02
9.219869e-02
7.633835e-02
5.724158e-02
3.816266e-02
1.908117e-02
0.000000e+00
9.540591e-02
9.540617e-02
9.540509e-02
9.541063e-02
9.538163e-02
9.183116e-02
7.630043e-02
5.724823e-02
3.816149e-02
1.908137e-02
0.000000e+00
9.540586e-02
9.540633e-02
9.540416e-02
9.541605e-02
9.535019e-02
9.155811e-02
7.626900e-02
5.725365e-02
3.816057e-02
1.908152e-02
0.000000e+00
9.540584e-02
9.540643e-02
9.540358e-02
9.541954e-02
9.532963e-02
9.139267e-02
7.624843e-02
5.725714e-02
3.815999e-02
1.908161e-02
0.000000e+00
9.540582e-02
9.540646e-02
9.540338e-02
9.542074e-02
9.532250e-02
9.133747e-02
7.624130e-02
5.725835e-02
3.815980e-02
1.908164e-02
0.000000e+00
9.540583e-02
9.540641e-02
9.540380e-02
9.541765e-02
9.534338e-02
9.146161e-02
7.626219e-02
5.725525e-02
3.816021e-02
1.908159e-02
0.000000e+00
9.540585e-02
9.540637e-02
9.540404e-02
9.541621e-02
9.535164e-02
9.153064e-02
7.627045e-02
5.725382e-02
3.816046e-02
1.908155e-02
0.000000e+00
9.540588e-02
9.540624e-02
9.540478e-02
9.541201e-02
9.537558e-02
9.174123e-02
7.629438e-02
5.724961e-02
3.816119e-02
1.908143e-02
0.000000e+00
9.540596e-02
9.540603e-02
9.540596e-02
9.540539e-02
9.541254e-02
9.210352e-02
7.633135e-02
5.724300e-02
3.816237e-02
1.908123e-02
0.000000e+00
9.540606e-02
9.540574e-02
9.540748e-02
9.539712e-02
9.545777e-02
9.262616e-02
7.637657e-02
5.723473e-02
3.816389e-02
1.908096e-02
0.000000e+00
9.540618e-02
9.540541e-02
9.540911e-02
9.538849e-02
9.550394e-02
9.328559e-02
7.642274e-02
5.722610e-02
3.816551e-02
1.908066e-02
0.000000e+00
9.540629e-02
9.540513e-02
9.541050e-02
9.538130e-02
9.554186e-02
9.394889e-02
7.646067e-02
5.721891e-02
3.816690e-02
1.908040e-02
0.000000e+00
9.540635e-02
9.540497e-02
9.541129e-02
9.537726e-02
9.556304e-02
9.427966e-02
7.648184e-02
5.721487e-02
3.816768e-02
1.908025e-02
0.000000e+00
9.540635e-02
9.540497e-02
9.541129e-02
9.537726e-02
9.556304e-02
9.427966e-02
7.648184e-02
5.721487e-02
3.816768e-02
1.908025e-02
0.000000e+00
9.540629e-02
9.540513e-02
9.541050e-02
9.538130e-02
9.554186e-02
9.394889e-02
7.646067e-02
5.721891e-02
3.816690e-02
1.908040e-02
0.000000e+00
9.540618e-02
9.540541e-02
9.540911e-02
9.538849e-02
9.550394e-02
9.328559e-02
7.642274e-02
5.722610e-02
3.816551e-02
1.908066e-02
0.000000e+00
9.540606e-02
9.540574e-02
9.540748e-02
9.539712e-02
9.545777e-02
9.262616e-02
7.637657e-02
5.723473e-02
3.816389e-02
1.908096e-02
0.000000e+00
9.540596e-02
9.540603e-02
9.540596e-02
9.540539e-02
9.541254e-02
9.210352e-02
7.633135e-02
5.724300e-02
3.816237e-02
1.908123e-02
0.000000e+00
9.540588e-02
9.540624e-02
9.540478e-02
9.541201e-02
9.537558e-02
9.174123e-02
7.629438e-02
5.724961e-02
3.816119e-02
1.908143e-02
0.000000e+00
9.540585e-02
9.540637e-02
9.540404e-02
9.541621e-02
9.535164e-02
9.153064e-02
7.627045e-02
5.725382e-02
3.816046e-02
1.908155e-02
0.000000e+00
9.540583e-02
9.540641e-02
9.540380e-02
9.541765e-02
9.534338e-02
9.146161e-02
7.626219e-02
5.725525e-02
3.816021e-02
1.908159e-02
0.000000e+00
9.540584e-02
9.540638e-02
9.540413e-02
9.541519e-02
9.535990e-02
9.156115e-02
7.627870e-02
5.725280e-02
3.816055e-02
1.908156e-02
0.000000e+00
9.540585e-02
9.540632e-02
9.540442e-02
9.541356e-02
9.536909e-02
9.164217e-02
7.628789e-02
5.725116e-02
3.816084e-02
1.908151e-02
0.000000e+00
9.540591e-02
9.540617e-02
9.540528e-02
9.540875e-02
9.539583e-02
9.189280e-02
7.631463e-02
5.724636e-02
3.816170e-02
1.908136e-02
0.000000e+00
9.540600e-02
9.540590e-02
9.540669e-02
9.540112e-02
9.543750e-02
9.233738e-02
7.635630e-02
5.723872e-02
3.816310e-02
1.908111e-02
0.000000e+00
9.540614e-02
9.540553e-02
9.540852e-02
9.539144e-02
9.548901e-02
9.303001e-02
7.640781e-02
5.722905e-02
3.816493e-02
1.908077e-02
0.000000e+00
9.540629e-02
9.540513e-02
9.541050e-02
9.538130e-02
9.554186e-02
9.394889e-02
7.646067e-02
5.721891e-02
3.816690e-02
1.908040e-02
0.000000e+00
9.540643e-02
9.540479e-02
9.541214e-02
9.537297e-02
9.558482e-02
9.465954e-02
7.650363e-02
5.721058e-02
3.816853e-02
1.908008e-02
0.000000e+00
9.540650e-02
9.540460e-02
9.541306e-02
9.536836e-02
9.560864e-02
9.501540e-02
7.652744e-02
5.720596e-02
3.816944e-02
1.907991e-02
0.000000e+00
9.540650e-02
9.540460e-02
9.541306e-02
9.536836e-02
9.560864e-02
9.501540e-02
7.652744e-02
5.720596e-02
3.816944e-02
1.907991e-02
0.000000e+00
9.540643e-02
9.540479e-02
9.541214e-02
9.537297e-02
9.558482e-02
9.465954e-02
7.650363e-02
5.721058e-02
3.816853e-02
1.908008e-02
0.000000e+00
9.540629e-02
9.540513e-02
9.541050e-02
9.538130e-02
9.554186e-02
9.394889e-02
7.646067e-02
5.721891e-02
3.816690e-02
1.908040e-02
0.000000e+00
9.540614e-02
9.540553e-02
9.540852e-02
9.539144e-02
9.548901e-02
9.303001e-02
7.640781e-02
5.722905e-02
3.816493e-02
1.908077e-02
0.000000e+00
9.540600e-02
9.540590e-02
9.540669e-02
9.540112e-02
9.543750e-02
9.233738e-02
7.635630e-02
5.723872e-02
3.816310e-02
1.908111e-02
0.000000e+00
9.540591e-02
9.540617e-02
9.540528e-02
9.540875e-02
9.539583e-02
9.189280e-02
7.631463e-02
5.724636e-02
3.816170e-02
1.908136e-02
0.000000e+00
9.540585e-02
9.540632e-02
9.540442e-02
9.541356e-02
9.536909e-02
9.164217e-02
7.628789e-02
5.725116e-02
3.816084e-02
1.908151e-02
0.000000e+00
9.540584e-02
9.540638e-02
9.540413e-02
9.541519e-02
9.535990e-02
9.156115e-02
7.627870e-02
5.725280e-02
3.816055e-02
1.908156e-02
0.000000e+00
9.540584e-02
9.540635e-02
9.540432e-02
9.541383e-02
9.536900e-02
9.161658e-02
7.628781e-02
5.725144e-02
3.816073e-02
1.908153e-02
0.000000e+00
9.540585e-02
9.540629e-02
9.540463e-02
9.541208e-02
9.537872e-02
9.170463e-02
7.629752e-02
5.724969e-02
3.816105e-02
1.908148e-02
0.000000e+00
9.540591e-02
9.540612e-02
9.540557e-02
9.540693e-02
9.540708e-02
9.197898e-02
7.632588e-02
5.724454e-02
3.816198e-02
1.908132e-02
0.000000e+00
9.540603e-02
9.540582e-02
9.540711e-02
9.539870e-02
9.545144e-02
9.247401e-02
7.637024e-02
5.723631e-02
3.816351e-02
1.908104e-02
0.000000e+00
9.540618e-02
9.540542e-02
9.540912e-02
9.538823e-02
9.550653e-02
9.325847e-02
7.642533e-02
5.722583e-02
3.816552e-02
1.908066e-02
0.000000e+00
9.540635e-02
9.540497e-02
9.541129e-02
9.537726e-02
9.556304e-02
9.427966e-02
7.648184e-02
5.721487e-02
3.816768e-02
1.908025e-02
0.000000e+00
9.540650e-02
9.540460e-02
9.541306e-02
9.536836e-02
9.560864e-02
9.501540e-02
7.652744e-02
5.720596e-02
3.816944e-02
1.907991e-02
0.000000e+00
9.540658e-02
9.540439e-02
9.541403e-02
9.536345e-02
9.563378e-02
9.537368e-02
7.655258e-02
5.720105e-02
3.817042e-02
1.907972e-02
0.000000e+00
9.540658e-02
9.540439e-02
9.541403e-02
9.536345e-02
9.563378e-02
9.537368e-02
7.655258e-02
5.720105e-02
3.817042e-02
1.907972e-02
0.000000e+00
9.540650e-02
9.540460e-02
9.541306e-02
9.536836e-02
9.560864e-02
9.501540e-02
7.652744e-02
5.720596e-02
3.816944e-02
1.907991e-02
0.000000e+00
9.540635e-02
9.540497e-02
9.541129e-02
9.537726e-02
9.556304e-02
9.427966e-02
7.648184e-02
5.721487e-02
3.816768e-02
1.908025e-02
0.000000e+00
9.540618e-02
9.540542e-02
9.540912e-02
9.538823e-02
9.550653e-02
9.325847e-02
7.642533e-02
5.722583e-02
3.816552e-02
1.908066e-02
0.000000e+00
9.540603e-02
9.540582e-02
9.540711e-02
9.539870e-02
9.545144e-02
9.247401e-02
7.637024e-02
5.723631e-02
3.816351e-02
1.908104e-02
0.000000e+00
9.540591e-02
9.540612e-02
9.540557e-02
9.540693e-02
9.540708e-02
9.197898e-02
7.632588e-02
5.724454e-02
3.816198e-02
1.908132e-02
0.000000e+00
9.540585e-02
9.540629e-02
9.540463e-02
9.541208e-02
9.537872e-02
9.170463e-02
7.629752e-02
5.724969e-02
3.816105e-02
1.908148e-02
0.000000e+00
9.540584e-02
9.540635e-02
9.540432e-02
9.541383e-02
9.536900e-02
9.161658e-02
7.628781e-02
5.725144e-02
3.816073e-02
1.908153e-02
0.000000e+00
9.540584e-02
9.540635e-02
9.540432e-02
9.541383e-02
9.536900e-02
9.161658e-02
7.628781e-02
5.725144e-02
3.816073e-02
1.908153e-02
0.000000e+00
9.540585e-02
9.540629e-02
9.540463e-02
9.541208e-02
9.537872e-02
9.170463e-02
7.629752e-02
5.724969e-02
3.816105e-02
1.908148e-02
0.000000e+00
9.540591e-02
9.540612e-02
9.540557e-02
9.540693e-02
9.540708e-02
9.197898e-02
7.632588e-02
5.724454e-02
3.816198e-02
1.908132e-02
0.000000e+00
9.540603e-02
9.540582e-02
9.540711e-02
9.539870e-02
9.545144e-02
9.247401e-02
7.637024e-02
5.723631e-02
3.816351e-02
1.908104e-02
0.000000e+00
9.540618e-02
9.540542e-02
9.540912e-02
9.538823e-02
9.550653e-02
9.325847e-02
7.642533e-02
5.722583e-02
3.816552e-02
1.908066e-02
0.000000e+00
9.540635e-02
9.540497e-02
9.541129e-02
9.537726e-02
9.556304e-02
9.427966e-02
7.648184e-02
5.721487e-02
3.816768e-02
1.908025e-02
0.000000e+00
9.540650e-02
9.540460e-02
9.541306e-02
9.536836e-02
9.560864e-02
9.501540e-02
7.652744e-02
5.720596e-02
3.816944e-02
1.907991e-02
0.000000e+00
9.540658e-02
9.540439e-02
9.541403e-02
9.536345e-02
9.563378e-02
9.537368e-02
7.655258e-02
5.720105e-02
3.817042e-02
1.907972e-02
0.000000e+00
9.540658e-02
9.540439e-02
9.541403e-02
9.536345e-02
9.563378e-02
9.537368e-02
7.655258e-02
5.720105e-02
3.817042e-02
1.907972e-02
0.000000e+00
9.540650e-02
9.540460e-02
9.541306e-02
9.536836e-02
9.560864e-02
9.501540e-02
7.652744e-02
5.720596e-02
3.816944e-02
1.907991e-02
0.000000e+00
9.540635e-02
9.540497e-02
9.541129e-02
9.537726e-02
9.556304e-02
9.427966e-02
7.648184e-02
5.721487e-02
3.816768e-02
1.908025e-02
0.000000e+00
9.540618e-02
9.540542e-02