<?xml version="1.0"?>
<VTKFile type="UnstructuredGrid" version="0.1">
<UnstructuredGrid>
<FieldData>
<DataArray Name="TIME" type="Float64" format="ascii" NumberOfTuples="1">
0.000000e+00
</DataArray>
</FieldData>
<FieldData>
<DataArray Name="CYCLE" type="Int32" format="ascii" NumberOfTuples="1">
0
</DataArray>
</FieldData>
<Piece NumberOfPoints="16" NumberOfCells="10">
<Points>
<DataArray NumberOfComponents="3" type="Float64" format="ascii">
0.000000e+00 0.000000e+00 0.000000e+00
1.000000e+00 0.000000e+00 0.000000e+00
0.000000e+00 1.000000e+00 0.000000e+00
1.000000e+00 1.000000e+00 0.000000e+00
0.000000e+00 0.000000e+00 5.000000e-01
1.000000e+00 0.000000e+00 5.000000e-01
0.000000e+00 1.000000e+00 5.000000e-01
1.000000e+00 1.000000e+00 5.000000e-01
0.000000e+00 0.000000e+00 5.000000e-01
1.000000e+00 0.000000e+00 5.000000e-01
0.000000e+00 1.000000e+00 5.000000e-01
1.000000e+00 1.000000e+00 5.000000e-01
0.000000e+00 0.000000e+00 1.000000e+00
1.000000e+00 0.000000e+00 1.000000e+00
0.000000e+00 1.000000e+00 1.000000e+00
1.000000e+00 1.000000e+00 1.000000e+00
</DataArray>
</Points>
<Cells>
<DataArray Name="connectivity" type="Int32" format="ascii">
0 2 3 1
0 4 6 2
0 1 5 4
1 3 7 5
2 6 7 3
8 12 14 10
8 9 13 12
9 11 15 13
10 14 15 11
12 13 15 14
</DataArray>
<DataArray Name="offsets" type="Int32" format="ascii">
4
8
12
16
20
24
28
32
36
40
</DataArray>
<DataArray Name="types" type="UInt8" format="ascii">
9
9
9
9
9
9
9
9
9
9
</DataArray>
</Cells>
<CellData>
<DataArray Name="data" type="Float64" NumberOfComponents="1" format="ascii">
5.000000e-01
0.000000e+00
5.000000e-01
1.000000e+00
5.000000e-01
0.000000e+00
5.000000e-01
1.000000e+00
5.000000e-01
5.000000e-01
</DataArray>
<DataArray Name="mesh_vars/FaceElements_Color" type="Float64" NumberOfComponents="1" format="ascii">
0.000000e+00
1.000000e+00
2.000000e+00
1.000000e+00
2.000000e+00
0.000000e+00
1.000000e+00
0.000000e+00
1.000000e+00
2.000000e+00
</DataArray>
<DataArray Name="mesh_vars/FaceElements_Id" type="Float64" NumberOfComponents="1" format="ascii">
1.000000e+00
3.000000e+00
5.000000e+00
4.000000e+00
6.000000e+00
1.000000e+01
1.200000e+01
1.100000e+01
1.300000e+01
9.000000e+00
</DataArray>
<DataArray Name="mesh_vars/FaceElements_Owner" type="Float64" NumberOfComponents="1" format="ascii">
0.000000e+00
0.000000e+00
0.000000e+00
0.000000e+00
0.000000e+00
0.000000e+00
0.000000e+00
0.000000e+00
0.000000e+00
0.000000e+00
</DataArray>
<DataArray Name="mesh_vars/FaceElements_Tag" type="Float64" NumberOfComponents="1" format="ascii">
1.000000e+02
1.000000e+00
1.000000e+01
2.000000e+00
2.000000e+01
1.000000e+00
1.000000e+01
2.000000e+00
2.000000e+01
2.000000e+02
</DataArray>
</CellData>
</Piece>
</UnstructuredGrid>
</VTKFile>
