<?xml version="1.0"?>
<VTKFile type="UnstructuredGrid" version="0.1">
<UnstructuredGrid>
<FieldData>
<DataArray Name="TIME" type="Float64" format="ascii" NumberOfTuples="1">
0.000000e+00
</DataArray>
</FieldData>
<FieldData>
<DataArray Name="CYCLE" type="Int32" format="ascii" NumberOfTuples="1">
0
</DataArray>
</FieldData>
<Piece NumberOfPoints="53" NumberOfCells="24">
<Points>
<DataArray NumberOfComponents="3" type="Float64" format="ascii">
1.000000e+00 1.000000e+00 0.000000e+00
1.000000e+00 6.666667e-01 0.000000e+00
1.000000e+00 8.333333e-01 0.000000e+00
1.000000e+00 3.333333e-01 0.000000e+00
1.000000e+00 5.000000e-01 0.000000e+00
1.000000e+00 0.000000e+00 0.000000e+00
1.000000e+00 1.666667e-01 0.000000e+00
6.666667e-01 0.000000e+00 0.000000e+00
8.333333e-01 0.000000e+00 0.000000e+00
3.333333e-01 0.000000e+00 0.000000e+00
5.000000e-01 0.000000e+00 0.000000e+00
0.000000e+00 0.000000e+00 0.000000e+00
1.666667e-01 0.000000e+00 0.000000e+00
0.000000e+00 1.000000e+00 0.000000e+00
0.000000e+00 6.666667e-01 0.000000e+00
0.000000e+00 8.333333e-01 0.000000e+00
0.000000e+00 3.333333e-01 0.000000e+00
0.000000e+00 5.000000e-01 0.000000e+00
0.000000e+00 1.666667e-01 0.000000e+00
3.333333e-01 1.000000e+00 0.000000e+00
1.666667e-01 1.000000e+00 0.000000e+00
6.666667e-01 1.000000e+00 0.000000e+00
5.000000e-01 1.000000e+00 0.000000e+00
8.333333e-01 1.000000e+00 0.000000e+00
7.014658e-01 2.986558e-01 0.000000e+00
3.239390e-01 2.773111e-01 0.000000e+00
6.840662e-01 1.493279e-01 0.000000e+00
4.953028e-01 1.386555e-01 0.000000e+00
5.127023e-01 2.879834e-01 0.000000e+00
3.286361e-01 1.386555e-01 0.000000e+00
3.050581e-01 6.950284e-01 0.000000e+00
1.619695e-01 3.053222e-01 0.000000e+00
1.525290e-01 5.141808e-01 0.000000e+00
3.144985e-01 4.861697e-01 0.000000e+00
1.525290e-01 6.808475e-01 0.000000e+00
7.227778e-01 6.761019e-01 0.000000e+00
6.947222e-01 8.380510e-01 0.000000e+00
5.139179e-01 6.855651e-01 0.000000e+00
4.858623e-01 8.475142e-01 0.000000e+00
8.507329e-01 3.159946e-01 0.000000e+00
7.121218e-01 4.873788e-01 0.000000e+00
8.613889e-01 5.047176e-01 0.000000e+00
3.191957e-01 8.475142e-01 0.000000e+00
8.613889e-01 6.713843e-01 0.000000e+00
5.000690e-01 5.000334e-01 0.000000e+00
6.007674e-01 3.993446e-01 0.000000e+00
4.120040e-01 3.886723e-01 0.000000e+00
1.525290e-01 8.475142e-01 0.000000e+00
8.613889e-01 8.380510e-01 0.000000e+00
8.507329e-01 1.493279e-01 0.000000e+00
4.025635e-01 5.975309e-01 0.000000e+00
6.114234e-01 5.880677e-01 0.000000e+00
1.619695e-01 1.386555e-01 0.000000e+00
</DataArray>
</Points>
<Cells>
<DataArray Name="connectivity" type="Int32" format="ascii">
1 2
2 0
0 23
23 21
3 4
4 1
5 6
6 3
7 8
8 5
9 10
10 7
11 12
12 9
16 18
18 11
13 15
15 14
19 20
20 13
14 17
17 16
21 22
22 19
</DataArray>
<DataArray Name="offsets" type="Int32" format="ascii">
2
4
6
8
10
12
14
16
18
20
22
24
26
28
30
32
34
36
38
40
42
44
46
48
</DataArray>
<DataArray Name="types" type="UInt8" format="ascii">
3
3
3
3
3
3
3
3
3
3
3
3
3
3
3
3
3
3
3
3
3
3
3
3
</DataArray>
</Cells>
<CellData>
<DataArray Name="data_s" type="Float64" NumberOfComponents="1" format="ascii">
1.000000e+00
1.000000e+00
9.166667e-01
7.500000e-01
1.000000e+00
1.000000e+00
1.000000e+00
1.000000e+00
7.500000e-01
9.166667e-01
4.166667e-01
5.833333e-01
8.333334e-02
2.500000e-01
0.000000e+00
0.000000e+00
0.000000e+00
0.000000e+00
2.500000e-01
8.333334e-02
0.000000e+00
0.000000e+00
5.833333e-01
4.166667e-01
</DataArray>
<DataArray Name="data_t" type="Float64" NumberOfComponents="9" format="ascii">
1.100000e+01 2.100000e+01 0.000000e+00 1.200000e+01 2.200000e+01 0.000000e+00 0.000000e+00 0.000000e+00 0.000000e+00
1.100000e+01 2.100000e+01 0.000000e+00 1.200000e+01 2.200000e+01 0.000000e+00 0.000000e+00 0.000000e+00 0.000000e+00
1.008333e+01 1.925000e+01 0.000000e+00 1.100000e+01 2.016667e+01 0.000000e+00 0.000000e+00 0.000000e+00 0.000000e+00
8.250000e+00 1.575000e+01 0.000000e+00 9.000000e+00 1.650000e+01 0.000000e+00 0.000000e+00 0.000000e+00 0.000000e+00
1.100000e+01 2.100000e+01 0.000000e+00 1.200000e+01 2.200000e+01 0.000000e+00 0.000000e+00 0.000000e+00 0.000000e+00
1.100000e+01 2.100000e+01 0.000000e+00 1.200000e+01 2.200000e+01 0.000000e+00 0.000000e+00 0.000000e+00 0.000000e+00
1.100000e+01 2.100000e+01 0.000000e+00 1.200000e+01 2.200000e+01 0.000000e+00 0.000000e+00 0.000000e+00 0.000000e+00
1.100000e+01 2.100000e+01 0.000000e+00 1.200000e+01 2.200000e+01 0.000000e+00 0.000000e+00 0.000000e+00 0.000000e+00
8.250000e+00 1.575000e+01 0.000000e+00 9.000000e+00 1.650000e+01 0.000000e+00 0.000000e+00 0.000000e+00 0.000000e+00
1.008333e+01 1.925000e+01 0.000000e+00 1.100000e+01 2.016667e+01 0.000000e+00 0.000000e+00 0.000000e+00 0.000000e+00
4.583333e+00 8.750000e+00 0.000000e+00 5.000000e+00 9.166667e+00 0.000000e+00 0.000000e+00 0.000000e+00 0.000000e+00
6.416667e+00 1.225000e+01 0.000000e+00 7.000000e+00 1.283333e+01 0.000000e+00 0.000000e+00 0.000000e+00 0.000000e+00
9.166667e-01 1.750000e+00 0.000000e+00 1.000000e+00 1.833333e+00 0.000000e+00 0.000000e+00 0.000000e+00 0.000000e+00
2.750000e+00 5.250000e+00 0.000000e+00 3.000000e+00 5.500000e+00 0.000000e+00 0.000000e+00 0.000000e+00 0.000000e+00
0.000000e+00 0.000000e+00 0.000000e+00 0.000000e+00 0.000000e+00 0.000000e+00 0.000000e+00 0.000000e+00 0.000000e+00
0.000000e+00 0.000000e+00 0.000000e+00 0.000000e+00 0.000000e+00 0.000000e+00 0.000000e+00 0.000000e+00 0.000000e+00
0.000000e+00 0.000000e+00 0.000000e+00 0.000000e+00 0.000000e+00 0.000000e+00 0.000000e+00 0.000000e+00 0.000000e+00
0.000000e+00 0.000000e+00 0.000000e+00 0.000000e+00 0.000000e+00 0.000000e+00 0.000000e+00 0.000000e+00 0.000000e+00
2.750000e+00 5.250000e+00 0.000000e+00 3.000000e+00 5.500000e+00 0.000000e+00 0.000000e+00 0.000000e+00 0.000000e+00
9.166667e-01 1.750000e+00 0.000000e+00 1.000000e+00 1.833333e+00 0.000000e+00 0.000000e+00 0.000000e+00 0.000000e+00
0.000000e+00 0.000000e+00 0.000000e+00 0.000000e+00 0.000000e+00 0.000000e+00 0.000000e+00 0.000000e+00 0.000000e+00
0.000000e+00 0.000000e+00 0.000000e+00 0.000000e+00 0.000000e+00 0.000000e+00 0.000000e+00 0.000000e+00 0.000000e+00
6.416667e+00 1.225000e+01 0.000000e+00 7.000000e+00 1.283333e+01 0.000000e+00 0.000000e+00 0.000000e+00 0.000000e+00
4.583333e+00 8.750000e+00 0.000000e+00 5.000000e+00 9.166667e+00 0.000000e+00 0.000000e+00 0.000000e+00 0.000000e+00
</DataArray>
<DataArray Name="data_v" type="Float64" NumberOfComponents="3" format="ascii">
1.000000e+00 2.000000e+00 0.000000e+00
1.000000e+00 2.000000e+00 0.000000e+00
9.166667e-01 1.833333e+00 0.000000e+00
7.500000e-01 1.500000e+00 0.000000e+00
1.000000e+00 2.000000e+00 0.000000e+00
1.000000e+00 2.000000e+00 0.000000e+00
1.000000e+00 2.000000e+00 0.000000e+00
1.000000e+00 2.000000e+00 0.000000e+00
7.500000e-01 1.500000e+00 0.000000e+00
9.166667e-01 1.833333e+00 0.000000e+00
4.166667e-01 8.333333e-01 0.000000e+00
5.833333e-01 1.166667e+00 0.000000e+00
8.333334e-02 1.666667e-01 0.000000e+00
2.500000e-01 5.000000e-01 0.000000e+00
0.000000e+00 0.000000e+00 0.000000e+00
0.000000e+00 0.000000e+00 0.000000e+00
0.000000e+00 0.000000e+00 0.000000e+00
0.000000e+00 0.000000e+00 0.000000e+00
2.500000e-01 5.000000e-01 0.000000e+00
8.333334e-02 1.666667e-01 0.000000e+00
0.000000e+00 0.000000e+00 0.000000e+00
0.000000e+00 0.000000e+00 0.000000e+00
5.833333e-01 1.166667e+00 0.000000e+00
4.166667e-01 8.333333e-01 0.000000e+00
</DataArray>
<DataArray Name="mesh_vars/FaceElements_Color" type="Float64" NumberOfComponents="1" format="ascii">
0.000000e+00
0.000000e+00
1.000000e+00
1.000000e+00
1.000000e+00
1.000000e+00
0.000000e+00
0.000000e+00
1.000000e+00
1.000000e+00
0.000000e+00
0.000000e+00
1.000000e+00
1.000000e+00
0.000000e+00
0.000000e+00
0.000000e+00
0.000000e+00
1.000000e+00
1.000000e+00
1.000000e+00
1.000000e+00
0.000000e+00
0.000000e+00
</DataArray>
<DataArray Name="mesh_vars/FaceElements_Id" type="Float64" NumberOfComponents="1" format="ascii">
2.000000e+01
2.000000e+01
3.100000e+01
3.100000e+01
2.100000e+01
2.100000e+01
2.200000e+01
2.200000e+01
2.300000e+01
2.300000e+01
2.400000e+01
2.400000e+01
2.500000e+01
2.500000e+01
2.800000e+01
2.800000e+01
2.600000e+01
2.600000e+01
2.900000e+01
2.900000e+01
2.700000e+01
2.700000e+01
3.000000e+01
3.000000e+01
</DataArray>
<DataArray Name="mesh_vars/FaceElements_Owner" type="Float64" NumberOfComponents="1" format="ascii">
0.000000e+00
0.000000e+00
0.000000e+00
0.000000e+00
0.000000e+00
0.000000e+00
0.000000e+00
0.000000e+00
0.000000e+00
0.000000e+00
0.000000e+00
0.000000e+00
0.000000e+00
0.000000e+00
0.000000e+00
0.000000e+00
0.000000e+00
0.000000e+00
0.000000e+00
0.000000e+00
0.000000e+00
0.000000e+00
0.000000e+00
0.000000e+00
</DataArray>
<DataArray Name="mesh_vars/FaceElements_Tag" type="Float64" NumberOfComponents="1" format="ascii">
2.000000e+00
2.000000e+00
2.000000e+01
2.000000e+01
2.000000e+00
2.000000e+00
2.000000e+00
2.000000e+00
1.000000e+01
1.000000e+01
1.000000e+01
1.000000e+01
1.000000e+01
1.000000e+01
1.000000e+00
1.000000e+00
1.000000e+00
1.000000e+00
2.000000e+01
2.000000e+01
1.000000e+00
1.000000e+00
2.000000e+01
2.000000e+01
</DataArray>
</CellData>
</Piece>
</UnstructuredGrid>
</VTKFile>
