<?xml version="1.0"?>
<VTKFile type="UnstructuredGrid" version="0.1">
<UnstructuredGrid>
<Piece NumberOfPoints="3830" NumberOfCells="7422">
<Points>
<DataArray NumberOfComponents="3" type="Float64" format="ascii">
 0.000000e+00 0.000000e+00 0.000000e+00
 1.000000e+00 0.000000e+00 0.000000e+00
 1.000000e+00 1.000000e+00 0.000000e+00
 0.000000e+00 1.000000e+00 0.000000e+00
 1.694915e-02 0.000000e+00 0.000000e+00
 3.389831e-02 0.000000e+00 0.000000e+00
 5.084746e-02 0.000000e+00 0.000000e+00
 6.779661e-02 0.000000e+00 0.000000e+00
 8.474576e-02 0.000000e+00 0.000000e+00
 1.016949e-01 0.000000e+00 0.000000e+00
 1.186441e-01 0.000000e+00 0.000000e+00
 1.355932e-01 0.000000e+00 0.000000e+00
 1.525424e-01 0.000000e+00 0.000000e+00
 1.694915e-01 0.000000e+00 0.000000e+00
 1.864407e-01 0.000000e+00 0.000000e+00
 2.033898e-01 0.000000e+00 0.000000e+00
 2.203390e-01 0.000000e+00 0.000000e+00
 2.372881e-01 0.000000e+00 0.000000e+00
 2.542373e-01 0.000000e+00 0.000000e+00
 2.711864e-01 0.000000e+00 0.000000e+00
 2.881356e-01 0.000000e+00 0.000000e+00
 3.050847e-01 0.000000e+00 0.000000e+00
 3.220339e-01 0.000000e+00 0.000000e+00
 3.389831e-01 0.000000e+00 0.000000e+00
 3.559322e-01 0.000000e+00 0.000000e+00
 3.728814e-01 0.000000e+00 0.000000e+00
 3.898305e-01 0.000000e+00 0.000000e+00
 4.067797e-01 0.000000e+00 0.000000e+00
 4.237288e-01 0.000000e+00 0.000000e+00
 4.406780e-01 0.000000e+00 0.000000e+00
 4.576271e-01 0.000000e+00 0.000000e+00
 4.745763e-01 0.000000e+00 0.000000e+00
 4.915254e-01 0.000000e+00 0.000000e+00
 5.084746e-01 0.000000e+00 0.000000e+00
 5.254237e-01 0.000000e+00 0.000000e+00
 5.423729e-01 0.000000e+00 0.000000e+00
 5.593220e-01 0.000000e+00 0.000000e+00
 5.762712e-01 0.000000e+00 0.000000e+00
 5.932203e-01 0.000000e+00 0.000000e+00
 6.101695e-01 0.000000e+00 0.000000e+00
 6.271186e-01 0.000000e+00 0.000000e+00
 6.440678e-01 0.000000e+00 0.000000e+00
 6.610169e-01 0.000000e+00 0.000000e+00
 6.779661e-01 0.000000e+00 0.000000e+00
 6.949153e-01 0.000000e+00 0.000000e+00
 7.118644e-01 0.000000e+00 0.000000e+00
 7.288136e-01 0.000000e+00 0.000000e+00
 7.457627e-01 0.000000e+00 0.000000e+00
 7.627119e-01 0.000000e+00 0.000000e+00
 7.796610e-01 0.000000e+00 0.000000e+00
 7.966102e-01 0.000000e+00 0.000000e+00
 8.135593e-01 0.000000e+00 0.000000e+00
 8.305085e-01 0.000000e+00 0.000000e+00
 8.474576e-01 0.000000e+00 0.000000e+00
 8.644068e-01 0.000000e+00 0.000000e+00
 8.813559e-01 0.000000e+00 0.000000e+00
 8.983051e-01 0.000000e+00 0.000000e+00
 9.152542e-01 0.000000e+00 0.000000e+00
 9.322034e-01 0.000000e+00 0.000000e+00
 9.491525e-01 0.000000e+00 0.000000e+00
 9.661017e-01 0.000000e+00 0.000000e+00
 9.830508e-01 0.000000e+00 0.000000e+00
 1.000000e+00 1.694915e-02 0.000000e+00
 1.000000e+00 3.389831e-02 0.000000e+00
 1.000000e+00 5.084746e-02 0.000000e+00
 1.000000e+00 6.779661e-02 0.000000e+00
 1.000000e+00 8.474576e-02 0.000000e+00
 1.000000e+00 1.016949e-01 0.000000e+00
 1.000000e+00 1.186441e-01 0.000000e+00
 1.000000e+00 1.355932e-01 0.000000e+00
 1.000000e+00 1.525424e-01 0.000000e+00
 1.000000e+00 1.694915e-01 0.000000e+00
 1.000000e+00 1.864407e-01 0.000000e+00
 1.000000e+00 2.033898e-01 0.000000e+00
 1.000000e+00 2.203390e-01 0.000000e+00
 1.000000e+00 2.372881e-01 0.000000e+00
 1.000000e+00 2.542373e-01 0.000000e+00
 1.000000e+00 2.711864e-01 0.000000e+00
 1.000000e+00 2.881356e-01 0.000000e+00
 1.000000e+00 3.050847e-01 0.000000e+00
 1.000000e+00 3.220339e-01 0.000000e+00
 1.000000e+00 3.389831e-01 0.000000e+00
 1.000000e+00 3.559322e-01 0.000000e+00
 1.000000e+00 3.728814e-01 0.000000e+00
 1.000000e+00 3.898305e-01 0.000000e+00
 1.000000e+00 4.067797e-01 0.000000e+00
 1.000000e+00 4.237288e-01 0.000000e+00
 1.000000e+00 4.406780e-01 0.000000e+00
 1.000000e+00 4.576271e-01 0.000000e+00
 1.000000e+00 4.745763e-01 0.000000e+00
 1.000000e+00 4.915254e-01 0.000000e+00
 1.000000e+00 5.084746e-01 0.000000e+00
 1.000000e+00 5.254237e-01 0.000000e+00
 1.000000e+00 5.423729e-01 0.000000e+00
 1.000000e+00 5.593220e-01 0.000000e+00
 1.000000e+00 5.762712e-01 0.000000e+00
 1.000000e+00 5.932203e-01 0.000000e+00
 1.000000e+00 6.101695e-01 0.000000e+00
 1.000000e+00 6.271186e-01 0.000000e+00
 1.000000e+00 6.440678e-01 0.000000e+00
 1.000000e+00 6.610169e-01 0.000000e+00
 1.000000e+00 6.779661e-01 0.000000e+00
 1.000000e+00 6.949153e-01 0.000000e+00
 1.000000e+00 7.118644e-01 0.000000e+00
 1.000000e+00 7.288136e-01 0.000000e+00
 1.000000e+00 7.457627e-01 0.000000e+00
 1.000000e+00 7.627119e-01 0.000000e+00
 1.000000e+00 7.796610e-01 0.000000e+00
 1.000000e+00 7.966102e-01 0.000000e+00
 1.000000e+00 8.135593e-01 0.000000e+00
 1.000000e+00 8.305085e-01 0.000000e+00
 1.000000e+00 8.474576e-01 0.000000e+00
 1.000000e+00 8.644068e-01 0.000000e+00
 1.000000e+00 8.813559e-01 0.000000e+00
 1.000000e+00 8.983051e-01 0.000000e+00
 1.000000e+00 9.152542e-01 0.000000e+00
 1.000000e+00 9.322034e-01 0.000000e+00
 1.000000e+00 9.491525e-01 0.000000e+00
 1.000000e+00 9.661017e-01 0.000000e+00
 1.000000e+00 9.830508e-01 0.000000e+00
 9.830508e-01 1.000000e+00 0.000000e+00
 9.661017e-01 1.000000e+00 0.000000e+00
 9.491525e-01 1.000000e+00 0.000000e+00
 9.322034e-01 1.000000e+00 0.000000e+00
 9.152542e-01 1.000000e+00 0.000000e+00
 8.983051e-01 1.000000e+00 0.000000e+00
 8.813559e-01 1.000000e+00 0.000000e+00
 8.644068e-01 1.000000e+00 0.000000e+00
 8.474576e-01 1.000000e+00 0.000000e+00
 8.305085e-01 1.000000e+00 0.000000e+00
 8.135593e-01 1.000000e+00 0.000000e+00
 7.966102e-01 1.000000e+00 0.000000e+00
 7.796610e-01 1.000000e+00 0.000000e+00
 7.627119e-01 1.000000e+00 0.000000e+00
 7.457627e-01 1.000000e+00 0.000000e+00
 7.288136e-01 1.000000e+00 0.000000e+00
 7.118644e-01 1.000000e+00 0.000000e+00
 6.949153e-01 1.000000e+00 0.000000e+00
 6.779661e-01 1.000000e+00 0.000000e+00
 6.610169e-01 1.000000e+00 0.000000e+00
 6.440678e-01 1.000000e+00 0.000000e+00
 6.271186e-01 1.000000e+00 0.000000e+00
 6.101695e-01 1.000000e+00 0.000000e+00
 5.932203e-01 1.000000e+00 0.000000e+00
 5.762712e-01 1.000000e+00 0.000000e+00
 5.593220e-01 1.000000e+00 0.000000e+00
 5.423729e-01 1.000000e+00 0.000000e+00
 5.254237e-01 1.000000e+00 0.000000e+00
 5.084746e-01 1.000000e+00 0.000000e+00
 4.915254e-01 1.000000e+00 0.000000e+00
 4.745763e-01 1.000000e+00 0.000000e+00
 4.576271e-01 1.000000e+00 0.000000e+00
 4.406780e-01 1.000000e+00 0.000000e+00
 4.237288e-01 1.000000e+00 0.000000e+00
 4.067797e-01 1.000000e+00 0.000000e+00
 3.898305e-01 1.000000e+00 0.000000e+00
 3.728814e-01 1.000000e+00 0.000000e+00
 3.559322e-01 1.000000e+00 0.000000e+00
 3.389831e-01 1.000000e+00 0.000000e+00
 3.220339e-01 1.000000e+00 0.000000e+00
 3.050847e-01 1.000000e+00 0.000000e+00
 2.881356e-01 1.000000e+00 0.000000e+00
 2.711864e-01 1.000000e+00 0.000000e+00
 2.542373e-01 1.000000e+00 0.000000e+00
 2.372881e-01 1.000000e+00 0.000000e+00
 2.203390e-01 1.000000e+00 0.000000e+00
 2.033898e-01 1.000000e+00 0.000000e+00
 1.864407e-01 1.000000e+00 0.000000e+00
 1.694915e-01 1.000000e+00 0.000000e+00
 1.525424e-01 1.000000e+00 0.000000e+00
 1.355932e-01 1.000000e+00 0.000000e+00
 1.186441e-01 1.000000e+00 0.000000e+00
 1.016949e-01 1.000000e+00 0.000000e+00
 8.474576e-02 1.000000e+00 0.000000e+00
 6.779661e-02 1.000000e+00 0.000000e+00
 5.084746e-02 1.000000e+00 0.000000e+00
 3.389831e-02 1.000000e+00 0.000000e+00
 1.694915e-02 1.000000e+00 0.000000e+00
 0.000000e+00 9.830508e-01 0.000000e+00
 0.000000e+00 9.661017e-01 0.000000e+00
 0.000000e+00 9.491525e-01 0.000000e+00
 0.000000e+00 9.322034e-01 0.000000e+00
 0.000000e+00 9.152542e-01 0.000000e+00
 0.000000e+00 8.983051e-01 0.000000e+00
 0.000000e+00 8.813559e-01 0.000000e+00
 0.000000e+00 8.644068e-01 0.000000e+00
 0.000000e+00 8.474576e-01 0.000000e+00
 0.000000e+00 8.305085e-01 0.000000e+00
 0.000000e+00 8.135593e-01 0.000000e+00
 0.000000e+00 7.966102e-01 0.000000e+00
 0.000000e+00 7.796610e-01 0.000000e+00
 0.000000e+00 7.627119e-01 0.000000e+00
 0.000000e+00 7.457627e-01 0.000000e+00
 0.000000e+00 7.288136e-01 0.000000e+00
 0.000000e+00 7.118644e-01 0.000000e+00
 0.000000e+00 6.949153e-01 0.000000e+00
 0.000000e+00 6.779661e-01 0.000000e+00
 0.000000e+00 6.610169e-01 0.000000e+00
 0.000000e+00 6.440678e-01 0.000000e+00
 0.000000e+00 6.271186e-01 0.000000e+00
 0.000000e+00 6.101695e-01 0.000000e+00
 0.000000e+00 5.932203e-01 0.000000e+00
 0.000000e+00 5.762712e-01 0.000000e+00
 0.000000e+00 5.593220e-01 0.000000e+00
 0.000000e+00 5.423729e-01 0.000000e+00
 0.000000e+00 5.254237e-01 0.000000e+00
 0.000000e+00 5.084746e-01 0.000000e+00
 0.000000e+00 4.915254e-01 0.000000e+00
 0.000000e+00 4.745763e-01 0.000000e+00
 0.000000e+00 4.576271e-01 0.000000e+00
 0.000000e+00 4.406780e-01 0.000000e+00
 0.000000e+00 4.237288e-01 0.000000e+00
 0.000000e+00 4.067797e-01 0.000000e+00
 0.000000e+00 3.898305e-01 0.000000e+00
 0.000000e+00 3.728814e-01 0.000000e+00
 0.000000e+00 3.559322e-01 0.000000e+00
 0.000000e+00 3.389831e-01 0.000000e+00
 0.000000e+00 3.220339e-01 0.000000e+00
 0.000000e+00 3.050847e-01 0.000000e+00
 0.000000e+00 2.881356e-01 0.000000e+00
 0.000000e+00 2.711864e-01 0.000000e+00
 0.000000e+00 2.542373e-01 0.000000e+00
 0.000000e+00 2.372881e-01 0.000000e+00
 0.000000e+00 2.203390e-01 0.000000e+00
 0.000000e+00 2.033898e-01 0.000000e+00
 0.000000e+00 1.864407e-01 0.000000e+00
 0.000000e+00 1.694915e-01 0.000000e+00
 0.000000e+00 1.525424e-01 0.000000e+00
 0.000000e+00 1.355932e-01 0.000000e+00
 0.000000e+00 1.186441e-01 0.000000e+00
 0.000000e+00 1.016949e-01 0.000000e+00
 0.000000e+00 8.474576e-02 0.000000e+00
 0.000000e+00 6.779661e-02 0.000000e+00
 0.000000e+00 5.084746e-02 0.000000e+00
 0.000000e+00 3.389831e-02 0.000000e+00
 0.000000e+00 1.694915e-02 0.000000e+00
 5.005028e-01 4.998391e-01 0.000000e+00
 7.071661e-01 2.918712e-01 0.000000e+00
 7.058461e-01 7.075282e-01 0.000000e+00
 2.933884e-01 7.073367e-01 0.000000e+00
 2.938885e-01 2.941144e-01 0.000000e+00
 4.999703e-01 7.791089e-01 0.000000e+00
 5.001569e-01 2.194803e-01 0.000000e+00
 2.181991e-01 4.983680e-01 0.000000e+00
[...]
<PointData Scalars="press" Vectors="vel">
<DataArray Name="press" type="Float64" NumberOfComponents="1" format="ascii">
 2.540148e+06
 2.444449e+06
 -2.451436e+06
 -2.707275e+06
 2.545971e+06
 2.534170e+06
 2.539703e+06
 2.528690e+06
 2.531885e+06
 2.530480e+06
 2.521400e+06
 2.517732e+06
 2.514101e+06
 2.511672e+06
 2.505842e+06
 2.501597e+06
 2.496123e+06
 2.492441e+06
 2.480835e+06
 2.483781e+06
 2.472617e+06
 2.463477e+06
 2.456187e+06
 2.440795e+06
 2.421416e+06
 2.401367e+06
 2.389005e+06
 2.406983e+06
 2.424983e+06
 2.437698e+06
 2.448973e+06
 2.460863e+06
 2.470040e+06
 2.479885e+06
 2.488625e+06
 2.500584e+06
 2.499933e+06
 2.509449e+06
 2.517685e+06
 2.517030e+06
 2.519884e+06
 2.519212e+06
 2.519268e+06
 2.515949e+06
 2.513897e+06
 2.513263e+06
 2.512524e+06
 2.511295e+06
 2.509754e+06
 2.501509e+06
 2.505603e+06
 2.504437e+06
 2.504408e+06
 2.500516e+06
 2.499612e+06
 2.498957e+06
 2.504501e+06
 2.503948e+06
 2.497477e+06
 2.498367e+06
 2.478391e+06
 2.461492e+06
 2.422514e+06
 2.364868e+06
 2.284738e+06
 2.198715e+06
 2.110242e+06
 2.020656e+06
 1.930852e+06
 1.841824e+06
 1.753313e+06
 1.665968e+06
 1.579140e+06
 1.493593e+06
 1.408769e+06
 1.324494e+06
 1.240077e+06
 1.156056e+06
 1.071702e+06
 9.874650e+05
 9.028202e+05
 8.179334e+05
 7.328729e+05
 6.473374e+05
 5.618246e+05
 4.757208e+05
 3.896814e+05
 3.031078e+05
 2.166377e+05
 1.297505e+05
 4.277549e+04
 -4.411018e+04
 -1.313112e+05
 -2.183386e+05
 -3.054362e+05
 -3.924905e+05
 -4.797058e+05
 -5.667210e+05
 -6.535571e+05
 -7.408760e+05
 -8.275771e+05
 -9.144753e+05
 -1.001061e+06
 -1.087522e+06
 -1.173855e+06
 -1.259990e+06
 -1.345751e+06
 -1.431417e+06
 -1.516684e+06
 -1.601514e+06
 -1.685979e+06
 -1.769294e+06
 -1.851618e+06
 -1.932040e+06
 -2.010224e+06
 -2.085986e+06
 -2.159079e+06
 -2.228664e+06
 -2.298126e+06
 -2.359464e+06
 -2.446114e+06
 -2.460569e+06
 -2.457631e+06
 -2.472870e+06
 -2.473305e+06
 -2.477731e+06
 -2.490338e+06
 -2.496985e+06
 -2.502338e+06
 -2.505583e+06
 -2.511096e+06
 -2.514855e+06
 -2.523104e+06
 -2.517196e+06
 -2.518837e+06
 -2.522458e+06
 -2.527036e+06
 -2.533572e+06
 -2.538134e+06
 -2.540993e+06
 -2.546023e+06
 -2.548389e+06
 -2.552703e+06
 -2.554596e+06
 -2.557318e+06
 -2.559431e+06
 -2.562617e+06
 -2.563222e+06
 -2.568634e+06
 -2.571151e+06
 -2.572386e+06
 -2.573743e+06
 -2.572415e+06
 -2.566157e+06
 -2.562148e+06
 -2.563949e+06
 -2.556167e+06
 -2.554534e+06
 -2.555463e+06
 -2.553217e+06
 -2.556329e+06
 -2.554284e+06
 -2.549241e+06
 -2.557523e+06
 -2.550679e+06
 -2.552121e+06
 -2.552142e+06
 -2.553930e+06
 -2.554765e+06
 -2.560376e+06
 -2.565252e+06
 -2.571932e+06
 -2.575372e+06
 -2.588870e+06
 -2.609855e+06
 -2.625028e+06
 -2.659330e+06
 -2.688366e+06
 -2.557471e+06
 -2.434895e+06
 -2.337375e+06
 -2.243727e+06
 -2.151593e+06
 -2.056409e+06
 -1.960038e+06
 -1.864056e+06
 -1.768555e+06
 -1.676097e+06
 -1.585678e+06
 -1.496681e+06
 -1.409605e+06
 -1.324054e+06
 -1.240139e+06
 -1.156472e+06
 -1.073288e+06
 -9.888971e+05
 -9.030913e+05
 -8.144204e+05
 -7.232125e+05
 -6.300809e+05
 -5.368620e+05
 -4.456029e+05
 -3.582773e+05
 -2.729079e+05
 -1.879939e+05
 -1.031047e+05
 -1.784910e+04
 6.766559e+04
 1.533417e+05
 2.391429e+05
 3.249619e+05
 4.106055e+05
 4.958992e+05
 5.809173e+05
 6.655086e+05
 7.495368e+05
 8.333716e+05
 9.167841e+05
 1.000085e+06
 1.083216e+06
 1.166318e+06
 1.249502e+06
 1.332768e+06
 1.416173e+06
 1.499820e+06
 1.583749e+06
 1.668000e+06
 1.752828e+06
 1.838286e+06
 1.924710e+06
 2.012430e+06
 2.101594e+06
 2.192483e+06
 2.285794e+06
 2.379061e+06
 2.477860e+06
 2.380784e+04
 1.055495e+06
 -1.064888e+06
 -1.071867e+06
 1.046945e+06
 -1.415792e+06
 1.414026e+06
 4.949231e+03
 7.328526e+03
 1.659429e+06
 -1.682082e+06
 1.653093e+06
 -1.665489e+06
 7.107866e+05
 -3.545304e+05
 -3.207160e+05
 7.406263e+05
 -1.748088e+06
 7.236730e+05
 -7.084387e+05
 -1.762561e+06
 -7.203397e+05
 1.749210e+06
 1.732990e+06
 4.215538e+05
 -7.122253e+05
 3.172884e+05
 9.913590e+05
 -1.006059e+06
 -1.968324e+06
 1.944996e+05
 1.953297e+06
 -1.870768e+05
 -1.131151e+06
 5.521908e+05
 1.972950e+06
 -1.228364e+06
 1.212068e+06
 -1.990887e+06
 -1.984614e+06
 -1.199364e+06
 1.975192e+06
 1.218991e+06
 -5.404382e+05
 -5.259738e+05
 1.229288e+06
 4.876815e+05
 -2.030825e+06
 2.013820e+06
 2.014218e+06
 -2.064191e+06
 5.990335e+05
 2.022027e+06
 -2.042533e+06
 -3.005749e+05
 3.155177e+05
 1.494592e+06
 1.214221e+06
 -1.502545e+06
 -1.516737e+06
 1.126606e+06
 -1.136109e+06
 1.522939e+06
 -1.145288e+06
 9.528100e+04
 -3.886074e+05
 2.729988e+05
 7.832272e+04
 9.744565e+05
 7.340724e+05
 1.324902e+06
 -7.708529e+05
 -1.323690e+06
 -2.134979e+06
 -2.119205e+06
 1.601758e+06
 1.608905e+06
 2.100586e+06
 2.108554e+06
 -1.617818e+06
 -1.646678e+06
 -7.542322e+05
 -6.609038e+04
 -5.540845e+05
 2.127742e+06
 -2.117722e+06
 5.812147e+05
 -3.115076e+05
 2.138471e+06
 -8.365668e+05
 -2.128757e+06
 8.405154e+05
 -1.366118e+06
 -1.508606e+06
 -1.642253e+06
 -3.486999e+05
 3.381524e+05
 1.630625e+06
 1.526791e+06
 4.394848e+05
 -3.602917e+05
 7.771387e+05
 8.543569e+05
 -1.062887e+06
 1.403185e+06
 -9.257117e+05
 2.156784e+06
 -2.181503e+06
 9.209442e+05
 -1.006913e+05
 2.586273e+05
 -5.917125e+05
 -8.635681e+05
 -7.379896e+05
 -1.310895e+06
 -2.032732e+05
 -8.798234e+05
 6.587705e+05
 2.192807e+06
 -2.200006e+06
 -1.000667e+04
 2.978927e+04
 -5.822072e+05
 -2.934674e+04
 2.223827e+04
 1.719739e+06
 -1.727107e+06
 1.247218e+06
 -1.755458e+06
 1.725545e+06
 1.033695e+06
 -1.741720e+06
 -1.384110e+06
 1.711729e+06
 -1.372987e+06
 1.354352e+06
 8.996639e+05
 1.196047e+06
 1.025322e+06
 -2.220731e+06
 5.573657e+05
 -5.351413e+05
 2.222686e+06
 4.999020e+05
 1.083066e+04
 -5.457918e+05
 2.203347e+05
 2.908667e+05
 2.236074e+06
 -2.211164e+06
 -2.292591e+06
 2.238340e+06
 -1.189035e+06
 2.476096e+05
 3.845069e+05
 3.032440e+05
 -2.815070e+05
 2.227466e+06
 -2.234362e+06
 1.738430e+06
 -1.740236e+06
 1.370903e+06
 -1.756884e+06
 2.229762e+06
 -1.363760e+06
 -2.232060e+06
 -2.238301e+06
 -1.328862e+06
 1.355360e+06
 2.233482e+06
 1.341468e+06
 -1.811251e+06
 1.001175e+06
 -1.011533e+06
 1.784106e+06
 -9.963734e+05
 -5.162311e+05
 -1.044265e+06
 1.810519e+06
 -8.852601e+05
 7.689811e+05
 -2.264968e+05
 4.760777e+05
 -1.072678e+06
 -2.238072e+06
 -2.270558e+06
 -1.866837e+06
 1.841901e+06
 -1.904978e+06
 1.837392e+06
 2.248118e+06
 2.247948e+06
 7.079693e+05
 -5.865342e+05
 5.503087e+05
 9.633127e+05
 1.497801e+06
 -4.564412e+05
 -7.777670e+05
 -1.322610e+06
 1.224524e+06
 -1.238241e+06
 1.272106e+06
 -1.242699e+06
 -6.141202e+05
 1.751138e+05
 1.036844e+06
 1.077814e+06
 -2.252839e+06
 2.262170e+06
 -1.076112e+06
 -1.907008e+06
 1.894044e+06
 1.897444e+06
 -1.929620e+06
 -7.924681e+05
 5.819076e+05
 1.469158e+06
 -1.479682e+06
 1.476598e+06
 -1.496090e+06
 -2.442412e+05
 7.859870e+05
 7.946983e+05
 -1.540374e+06
 1.948659e+06
 -1.956780e+06
 -5.561735e+05
 5.689997e+05
 1.541281e+06
 -3.412455e+05
 3.994734e+05
 1.306299e+06
 -1.996609e+05
 -1.545454e+06
 6.726243e+05
 4.862052e+05
 8.783575e+05
 -1.692139e+05
 -8.794486e+05
 -8.822646e+05
 7.163159e+04
 -2.266930e+06
 2.278604e+06
 -2.441025e+05
 2.712043e+05
 -1.541757e+06
 1.529201e+06
 -1.564549e+06
 1.868597e+06
 -1.974079e+06
 -6.244781e+04
 1.958123e+06
 7.303325e+04
 -1.683646e+06
 -5.926663e+04
 3.596082e+05
 -1.944134e+06
 8.989858e+05
 1.391997e+06
 -4.971505e+05
 9.270230e+05
 -7.563134e+05
 1.985825e+06
 -4.759805e+04
 1.694129e+06
 -1.332477e+06
 -2.292077e+06
 1.126444e+06
 1.223071e+06
 -1.120302e+06
 2.276660e+06
 -1.538679e+06
 2.464701e+05
 -3.477907e+05
 1.532887e+06
 1.574075e+06
 2.484191e+05
 7.241300e+05
 -2.294923e+06
 -7.190641e+05
 2.285755e+06
 -3.114681e+05
 6.007929e+05
 -1.897895e+06
 -1.911545e+06
 1.888556e+06
 1.275075e+06
 -1.214075e+06
 1.048674e+06
 1.798618e+06
 1.791730e+06
 -1.827353e+06
 -5.477344e+05
 -1.801817e+06
 -7.970075e+05
 1.955194e+06
 -1.889463e+06
 -8.939642e+05
 -1.597584e+06
 -1.770131e+05
 1.195197e+06
 1.013806e+06
 7.643470e+05
 -9.214827e+05
 2.315666e+06
 -2.328173e+06
 1.534867e+06
 1.542542e+06
 -2.303041e+06
 2.326527e+06
 -1.541032e+06
 -1.566164e+06
 1.418354e+05
 3.776971e+04
 -1.320152e+06
 2.278785e+05
 1.020422e+06
 -4.045034e+05
 -1.389326e+05
 7.450470e+05
 -7.325583e+05
 -2.302334e+06
 2.325857e+06
 1.424107e+06
 -8.319923e+05
 8.370821e+05
 2.496296e+05
 -2.440318e+05
 1.823220e+06
 -1.843835e+06
 6.168402e+05
 -5.396700e+05
 4.906736e+05
 -2.306914e+06
 -4.756990e+05
 2.302198e+06
 -1.711667e+05
 3.011777e+04
 -1.762721e+06
 1.744942e+06
 -5.094620e+05
 5.147789e+05
 -1.394569e+06
 1.230174e+06
 -1.414619e+06
 -1.428278e+06
 1.402914e+06
 -4.022003e+05
 8.251531e+05
 -2.043536e+06
 2.032479e+06
 -2.051576e+06
 2.485400e+05
 2.031647e+06
 -5.559556e+05
 2.338429e+06
 -1.486221e+06
 2.346359e+06
 -2.036925e+06
 -2.006156e+06
 -1.933056e+06
 -2.107389e+06
 -2.297029e+06
 -2.360550e+06
 -1.016687e+06
 1.988101e+06
 2.052190e+06
 -9.462162e+05
 2.039530e+06
 -1.243995e+06
 -9.368586e+05
 6.911289e+05
 1.996188e+06
 1.527706e+06
 -1.315373e+06
 4.030103e+05
 -9.886965e+05
 9.953462e+05
 8.831614e+05
 -8.968925e+05
 -3.634057e+05
 -8.391404e+05
 -1.489142e+05
 1.479479e+05
 1.545441e+06
 1.928756e+06
 -2.039108e+06
 1.432532e+06
 4.799062e+05
 7.314038e+05
 -2.335359e+05
 -1.173678e+06
 9.457392e+05
 8.406600e+05
 4.993156e+05
 -1.052250e+06
 -1.197783e+06
 -1.677942e+05
 -1.063847e+06
 -5.366360e+05
 5.222424e+05
 7.220598e+05
 -2.076924e+06
 -2.315429e+06
 -1.138739e+05
 2.326124e+06
 1.241653e+05
 1.584982e+06
 -4.161569e+05
 1.129035e+06
 1.096080e+05
 3.735338e+05
 -1.315966e+06
 1.445092e+06
 -1.179816e+06
 -1.175996e+06
 1.782081e+06
 1.163830e+06
 -1.133169e+06
 -1.303583e+06
 1.292101e+06
 -1.709418e+06
 1.783486e+06
 -1.688082e+06
 1.201508e+06
 1.946030e+06
 -2.034863e+06
 1.041676e+06
 8.610529e+04
 1.955538e+05
 1.153320e+06
 -5.726743e+05
 5.905272e+05
 -1.516948e+06
 1.114344e+06
 -6.872878e+05
 5.633139e+05
 -1.564875e+06
 -9.628074e+05
 2.345929e+06
 9.630381e+05
 -2.341784e+06
 8.860601e+05
 -3.485068e+05
 2.366550e+06
 -2.333238e+06
 9.175766e+05
 -9.165582e+05
 -1.481278e+06
 7.513320e+05
 1.078088e+06
 1.578199e+06
 -7.132144e+05
 -2.073879e+06
 2.070374e+06
 -2.097030e+06
 2.076026e+06
 2.126097e+06
 1.520343e+05
 -2.142586e+06
 -1.348162e+05
 -1.069109e+06
 -1.713580e+05
 -7.111496e+05
 1.374967e+06
 8.263591e+05
 -2.180988e+05
 4.296665e+05
 -2.338578e+06
 -4.081318e+05
 2.361036e+06
 2.550309e+05
 -7.261568e+05
 4.344745e+05
 6.303463e+05
 1.717118e+06
 1.713636e+06
 -2.374110e+06
 2.366274e+06
 -1.737061e+06
 -1.713678e+06
 -2.336814e+06
 1.704549e+06
 2.379849e+06
 -1.735555e+06
 -1.738733e+06
 3.355480e+05
 -1.654306e+06
 -9.243453e+05
 2.367207e+06
 1.219916e+06
 -2.332008e+06
 -1.216288e+06
 1.397985e+06
 -1.594792e+06
 -7.145988e+05
 1.733245e+06
 -2.304333e+06
 -2.417133e+06
 2.371766e+06
 2.378348e+06
 2.316673e+05
 -6.687502e+05
 6.702686e+05
 -2.086788e+06
 2.097481e+06
 -8.408384e+05
 2.105124e+06
 -1.134728e+06
 1.181400e+05
 2.361468e+06
 -9.926212e+04
 1.657872e+06
 -2.336601e+06
 -9.451630e+05
 1.878400e+06
 8.781349e+05
 -1.356320e+06
 -1.373785e+06
 1.347136e+06
 -6.721939e+05
 -6.221730e+05
 -2.159192e+06
 6.220804e+05
 1.203829e+06
 -6.188893e+05
 -1.190211e+06
 -2.158199e+06
 2.149791e+06
 1.203416e+06
 1.770335e+05
 -8.431918e+05
 1.847259e+06
 -3.632077e+05
 5.266698e+04
 1.082677e+06
 -3.990867e+05
 4.081467e+05
 1.880687e+06
 -1.906114e+06
 -1.232739e+06
 4.612835e+05
 -6.034820e+05
 7.106581e+05
 6.246532e+05
 -1.181048e+06
 -1.809640e+06
 -6.734642e+05
 5.085674e+05
 -1.380983e+06
 7.553991e+05
 2.133220e+06
 -2.146671e+06
 -1.674268e+05
 1.857023e+05
 9.992746e+04
 -7.771048e+05
 1.380256e+06
 -7.275192e+05
 -2.170398e+06
 -3.738155e+05
 3.915960e+05
 2.181507e+06
 -1.646893e+06
 1.507072e+06
 -1.502635e+06
 4.034164e+05
 1.626416e+06
 -1.537110e+06
 2.227229e+05
 -3.627982e+05
 5.072262e+05
 -1.894778e+06
 1.780371e+06
 -3.738263e+05
 9.297904e+05
 1.627538e+06
 1.570636e+06
 -1.631016e+06
 -1.580952e+06
 1.356247e+06
 1.506425e+06
 -1.653181e+06
 -1.596424e+06
 7.298905e+05
 1.495115e+05
 1.257058e+06
 -2.162639e+06
 2.075983e+06
 -2.364091e+06
 -1.269730e+06
 2.074726e+06
 -2.213138e+06
 -1.211567e+06
 2.366276e+06
 -1.695713e+06
 1.054780e+06
 1.621380e+06
 1.811573e+06
 2.114652e+06
 -1.365411e+06
 -4.631514e+05
 -1.925315e+06
 4.845791e+04
 -5.311281e+04
 1.883681e+06
 -8.825729e+05
 -1.914439e+06
 -1.905411e+06
 1.632144e+06
 1.145358e+06
 -1.844624e+06
 -3.698474e+05
 6.344522e+05
 4.165161e+05
 -4.311392e+05
 1.363540e+06
 -4.539110e+05
 -2.352072e+06
 2.385126e+06
 -5.782759e+05
 6.011244e+05
 -2.005292e+06
 6.494811e+05
 2.175012e+06
 -2.047229e+06
 -5.393194e+04
 2.172192e+06
 -7.174965e+05
 2.140735e+06
 -1.781093e+06
 8.857580e+05
 1.122340e+06
 1.636359e+06
 -1.077720e+05
 1.372804e+06
 -7.536975e+05
 -1.392617e+06
 1.319127e+06
 -1.385745e+06
 -1.603986e+06
 6.445802e+05
 1.375137e+05
 1.348579e+06
 -1.839129e+06
 8.559310e+05
 3.800579e+05
 1.695087e+06
 8.659311e+05
 1.012594e+06
 -1.209163e+06
 1.208338e+06
 1.083479e+06
 1.829486e+06
 -4.197003e+05
 -1.075293e+06
 -1.016067e+06
 -8.594286e+05
 -1.026171e+06
 -5.120327e+05
 -1.402923e+06
 -1.625893e+05
 1.186432e+06
 5.465642e+05
 -6.453163e+05
 3.522827e+05
 -7.557007e+03
 -2.361300e+06
 2.362827e+06
 -2.347620e+06
 -3.249877e+05
 2.376331e+06
 1.402022e+06
 1.022061e+05
 1.410929e+06
 -1.401896e+06
 -2.374481e+06
 -1.431167e+06
 1.370302e+06
 2.392465e+06
 3.764920e+05
 1.130876e+06
 -1.144094e+06
 -1.126122e+06
 3.119164e+05
 -7.219356e+05
 1.752078e+06
 -1.797264e+06
 -1.764591e+06
 1.750230e+06
 2.399964e+06
 -1.178845e+05
 2.401018e+06
 2.198190e+06
 -2.423039e+06
 -2.247311e+06
 -2.334896e+06
 2.194978e+06
 -2.168024e+06
 1.087990e+06
 5.201955e+05
 -2.259767e+05
 -6.819728e+05
 -1.190901e+06
 -1.058035e+05
 -2.155860e+06
 1.259220e+06
 1.390709e+06
 3.225119e+05
 4.210923e+05
 -1.271489e+06
 -5.468615e+05
 -1.285534e+06
 -1.057937e+06
 -9.180410e+05
 7.775302e+04
 -7.952740e+05
 1.371836e+06
 1.514739e+06
 2.153285e+06
 6.262885e+05
 1.643952e+06
 -6.918630e+05
 1.357337e+06
 8.552537e+05
 1.172326e+06
 -1.865534e+05
 1.691293e+06
 -1.276797e+06
 1.796633e+05
 2.103988e+06
 -6.178975e+05
 4.344848e+05
 -6.899710e+05
 6.999050e+05
 1.460159e+06
 7.458149e+05
 2.392697e+06
 -2.399693e+06
 1.470666e+06
 -1.911329e+06
 9.850977e+05
 1.645212e+06
 1.902111e+06
 -1.684939e+06
 7.178567e+04
 -2.347457e+06
 1.898790e+06
 -1.947223e+06
 -1.663319e+06
 2.182852e+06
 2.403583e+06
 -1.498392e+06
 -2.202452e+06
 -2.189669e+06
 -1.089929e+06
 -1.494485e+06
 1.807902e+06
 2.184169e+06
 -2.055676e+04
 1.478908e+06
 -1.443587e+06
 9.059418e+05
 -9.900401e+04
 1.961905e+06
 1.895274e+06
 6.429722e+05
 1.897826e+06
 8.941320e+05
 -9.983079e+05
 -9.904943e+05
 -2.217075e+06
 -2.243920e+06
 2.221365e+06
 1.254341e+06
 -1.668948e+06
 2.211331e+06
 -1.831998e+06
 -1.785692e+06
 2.758021e+05
 4.315072e+05
 -1.307132e+06
 -5.121284e+04
 8.353450e+05
 7.750187e+05
 -6.014877e+05
 2.346152e+06
 1.798906e+06
 -1.829506e+06
 -1.810505e+06
 -2.371261e+06
 1.792164e+06
 6.218581e+05
 1.571366e+06
 -7.608086e+05
 -1.090601e+06
 -1.896902e+06
 -4.261584e+05
 1.058042e+06
 -1.054964e+06
 -3.730828e+05
 -1.902358e+06
 -8.848664e+05
 1.313859e+06
 1.661851e+06
 -2.100754e+06
 -5.953699e+05
 -1.924602e+05
 5.603099e+05
 -1.070596e+06
 -1.552776e+06
 -3.731307e+05
 -3.056819e+05
 -2.515549e+05
 1.610567e+06
 -1.845836e+05
 -4.647236e+05
 2.644863e+05
 6.413188e+05
 9.766385e+05
 -9.719471e+05
 -4.781914e+05
 -1.986629e+06
 -1.995116e+06
 1.973240e+06
 -2.172354e+06
 1.063851e+06
 1.922430e+06
 1.919299e+06
 -1.927671e+06
 -1.953364e+06
 -1.140719e+06
 -5.147075e+05
 7.399196e+05
 6.094721e+05
 -1.461068e+06
 2.042615e+06
 -2.087384e+06
 1.252613e+06
 -4.957105e+05
 2.086880e+06
 4.615021e+05
 -9.828918e+05
 2.786755e+05
 -2.925995e+05
 -1.633498e+06
 -1.896558e+06
 -1.927875e+06
 2.004929e+06
 -2.022316e+06
 6.420655e+04
 -2.169873e+06
 -5.454819e+04
 1.471064e+06
 1.556748e+06
 1.246069e+04
 -4.570517e+05
 1.051247e+06
 2.405898e+06
 -1.545019e+06
 1.521414e+06
 -2.377805e+06
 -1.049207e+06
 -8.169943e+05
 3.591479e+05
 -2.362834e+06
 2.371089e+06
 8.233990e+05
 -5.542590e+05
 1.663710e+06
 1.510345e+06
 -9.311926e+05
 -1.418981e+06
 1.855629e+06
 5.305753e+05
 1.024019e+06
 -8.859341e+05
 2.029488e+06
 -1.706615e+06
 3.563688e+05
 1.664360e+06
 -1.686281e+06
 1.669053e+06
 -1.350031e+06
 -6.257021e+04
 -1.670751e+06
 1.862944e+06
 -1.172953e+06
 1.392396e+06
 1.891866e+06
 -1.839226e+06
 1.143114e+06
 -8.178083e+05
 1.821777e+06
 -1.092288e+05
 9.884502e+05
 1.130346e+05
 -2.194809e+06
 -1.496192e+06
 -9.323226e+05
 -2.155131e+06
 4.323582e+05
 -1.184244e+06
 2.894103e+05
 1.278823e+05
 9.235634e+05
 -1.624545e+06
 9.486592e+05
 -1.774445e+06
 -3.662227e+05
 1.756033e+06
 -1.903636e+05
 3.670670e+05
 -5.999128e+05
 6.111501e+05
 2.235827e+06
 -2.252216e+06
 4.090612e+05
 -2.391917e+05
 1.285455e+06
 -1.190362e+06
 1.752963e+06
 -9.122992e+05
 -1.758855e+06
 1.258822e+06
 -1.777398e+06
 8.518603e+05
 -1.195226e+06
 -9.191939e+04
 -2.988667e+05
 1.597797e+05
 -2.043161e+04
 1.777976e+06
 1.465496e+06
 -1.575620e+06
 1.348448e+05
 -1.496871e+06
 6.182450e+05
 -1.968723e+06
 1.872636e+06
 -2.004760e+05
 2.115790e+05
 9.869112e+05
 1.958486e+06
 7.215351e+05
 1.509088e+06
 1.666138e+06
 2.017273e+06
 1.274169e+06
 -2.001195e+06
 -1.635105e+06
 -4.604068e+05
 1.706232e+06
 2.394443e+06
 -1.053271e+06
 -2.379942e+06
 3.223259e+04
 -1.355682e+06
 8.765942e+05
 -1.268939e+06
 -1.185883e+04
 -1.272657e+06
 -1.850881e+06
 1.255206e+06
 -4.825492e+05
 -9.664838e+05
 1.423355e+04
 9.719151e+05
 -1.453283e+06
 3.424859e+05
 7.856952e+05
 1.334273e+06
 -3.964394e+05
 2.611493e+05
 -2.389972e+06
 2.418317e+06
 -2.821658e+05
 -1.808596e+06
 1.307160e+06
 -2.213010e+06
 -1.415960e+06
 1.084157e+05
 8.903421e+05
 -2.382602e+06
 1.054761e+06
 -1.397799e+06
 -1.057927e+06
 1.386854e+06
 2.386569e+06
 2.222019e+06
 -9.640179e+05
 1.144520e+06
 1.527282e+06
 3.626825e+05
 -1.566935e+06
 -1.542112e+06
 -7.588297e+05
 7.643408e+05
 2.007069e+06
 6.859091e+05
 -2.922275e+05
 -2.015010e+06
 -2.025471e+06
 2.003377e+06
 -6.528667e+05
 1.661244e+06
 -3.393814e+04
 2.092103e+06
 1.627560e+05
 3.993578e+05
 2.093201e+06
 2.255900e+06
 8.501603e+05
 3.269161e+05
 -8.443491e+05
 2.271718e+05
 1.204016e+06
 -1.870112e+06
 9.597277e+05
 -2.063574e+06
 -2.387048e+05
 2.891735e+05
 -5.129794e+05
 1.631992e+06
 -1.233145e+06
 2.223763e+06
 1.539639e+06
 1.009693e+06
 -1.037289e+06
 2.219868e+06
 2.197320e+06
 1.634707e+06
 2.222990e+06
 -2.110120e+06
 -2.145951e+06
 -2.089763e+06
 -1.918875e+06
 -6.509118e+04
 2.074830e+06
 8.159426e+04
 1.163167e+06
 -4.327213e+04
 -1.436229e+06
 1.962814e+06
 1.983010e+06
 4.854899e+05
 1.605242e+06
 -2.233454e+06
 6.964408e+05
 -1.637100e+06
 8.444066e+05
 -8.407351e+05
 2.386947e+06
 2.398002e+05
 2.028452e+06
 1.069033e+06
 -2.382743e+06
 -2.227774e+05
 -2.100466e+05
 -1.922217e+05
 -2.069616e+05
 9.511821e+05
 -1.280248e+06
 -6.440473e+05
 -2.816748e+05
 5.180834e+05
 1.264177e+06
 -1.412165e+06
 -2.091955e+06
 8.759194e+04
 -2.073301e+06
 -9.590964e+05
 9.395070e+05
 2.284079e+05
 -3.635142e+04
 2.000759e+06
 -8.211829e+05
 5.182193e+05
 7.389526e+05
 -2.142408e+06
 -8.080178e+05
 6.787342e+05
 -6.635597e+05
 9.788004e+05
 -1.261563e+06
 -2.221343e+06
 -1.297716e+06
 2.218028e+06
 1.292638e+06
 1.100321e+06
 1.102755e+06
 -1.091304e+06
 -2.137783e+06
 2.127265e+06
 -1.470850e+06
 -1.298324e+06
 1.287548e+06
 1.155272e+06
 2.433255e+06
 6.121672e+05
 -8.220025e+05
 -2.383303e+06
 8.250949e+05
 2.513517e+05
 -5.305274e+05
 1.698230e+06
 -1.411475e+06
 -1.639398e+06
 -1.023148e+06
 -3.461572e+05
 -8.919344e+05
 1.450817e+06
 8.971852e+05
 -1.313945e+06
 7.041627e+05
 -2.138032e+06
 -7.309542e+05
 -3.105639e+05
 -1.463963e+06
 5.900212e+05
 -6.144656e+05
 -2.040143e+06
 1.106919e+06
 -1.675659e+06
 -2.412976e+06
 1.612665e+06
 -2.374483e+06
 2.428106e+06
 1.607934e+06
 2.440406e+06
 -1.631714e+06
 -2.342423e+05
 -1.616218e+06
 1.859731e+06