<?xml version="1.0"?>
<VTKFile type="UnstructuredGrid" version="0.1">
<UnstructuredGrid>
<Piece NumberOfPoints="3830" NumberOfCells="7422">
<Points>
<DataArray NumberOfComponents="3" type="Float64" format="ascii">
 0.000000e+00 0.000000e+00 0.000000e+00
 1.000000e+00 0.000000e+00 0.000000e+00
 1.000000e+00 1.000000e+00 0.000000e+00
 0.000000e+00 1.000000e+00 0.000000e+00
 1.694915e-02 0.000000e+00 0.000000e+00
 3.389831e-02 0.000000e+00 0.000000e+00
 5.084746e-02 0.000000e+00 0.000000e+00
 6.779661e-02 0.000000e+00 0.000000e+00
 8.474576e-02 0.000000e+00 0.000000e+00
 1.016949e-01 0.000000e+00 0.000000e+00
 1.186441e-01 0.000000e+00 0.000000e+00
 1.355932e-01 0.000000e+00 0.000000e+00
 1.525424e-01 0.000000e+00 0.000000e+00
 1.694915e-01 0.000000e+00 0.000000e+00
 1.864407e-01 0.000000e+00 0.000000e+00
 2.033898e-01 0.000000e+00 0.000000e+00
 2.203390e-01 0.000000e+00 0.000000e+00
 2.372881e-01 0.000000e+00 0.000000e+00
 2.542373e-01 0.000000e+00 0.000000e+00
 2.711864e-01 0.000000e+00 0.000000e+00
 2.881356e-01 0.000000e+00 0.000000e+00
 3.050847e-01 0.000000e+00 0.000000e+00
 3.220339e-01 0.000000e+00 0.000000e+00
 3.389831e-01 0.000000e+00 0.000000e+00
 3.559322e-01 0.000000e+00 0.000000e+00
 3.728814e-01 0.000000e+00 0.000000e+00
 3.898305e-01 0.000000e+00 0.000000e+00
 4.067797e-01 0.000000e+00 0.000000e+00
 4.237288e-01 0.000000e+00 0.000000e+00
 4.406780e-01 0.000000e+00 0.000000e+00
 4.576271e-01 0.000000e+00 0.000000e+00
 4.745763e-01 0.000000e+00 0.000000e+00
 4.915254e-01 0.000000e+00 0.000000e+00
 5.084746e-01 0.000000e+00 0.000000e+00
 5.254237e-01 0.000000e+00 0.000000e+00
 5.423729e-01 0.000000e+00 0.000000e+00
 5.593220e-01 0.000000e+00 0.000000e+00
 5.762712e-01 0.000000e+00 0.000000e+00
 5.932203e-01 0.000000e+00 0.000000e+00
 6.101695e-01 0.000000e+00 0.000000e+00
 6.271186e-01 0.000000e+00 0.000000e+00
 6.440678e-01 0.000000e+00 0.000000e+00
 6.610169e-01 0.000000e+00 0.000000e+00
 6.779661e-01 0.000000e+00 0.000000e+00
 6.949153e-01 0.000000e+00 0.000000e+00
 7.118644e-01 0.000000e+00 0.000000e+00
 7.288136e-01 0.000000e+00 0.000000e+00
 7.457627e-01 0.000000e+00 0.000000e+00
 7.627119e-01 0.000000e+00 0.000000e+00
 7.796610e-01 0.000000e+00 0.000000e+00
 7.966102e-01 0.000000e+00 0.000000e+00
 8.135593e-01 0.000000e+00 0.000000e+00
 8.305085e-01 0.000000e+00 0.000000e+00
 8.474576e-01 0.000000e+00 0.000000e+00
 8.644068e-01 0.000000e+00 0.000000e+00
 8.813559e-01 0.000000e+00 0.000000e+00
 8.983051e-01 0.000000e+00 0.000000e+00
 9.152542e-01 0.000000e+00 0.000000e+00
 9.322034e-01 0.000000e+00 0.000000e+00
 9.491525e-01 0.000000e+00 0.000000e+00
 9.661017e-01 0.000000e+00 0.000000e+00
 9.830508e-01 0.000000e+00 0.000000e+00
 1.000000e+00 1.694915e-02 0.000000e+00
 1.000000e+00 3.389831e-02 0.000000e+00
 1.000000e+00 5.084746e-02 0.000000e+00
 1.000000e+00 6.779661e-02 0.000000e+00
 1.000000e+00 8.474576e-02 0.000000e+00
 1.000000e+00 1.016949e-01 0.000000e+00
 1.000000e+00 1.186441e-01 0.000000e+00
 1.000000e+00 1.355932e-01 0.000000e+00
 1.000000e+00 1.525424e-01 0.000000e+00
 1.000000e+00 1.694915e-01 0.000000e+00
 1.000000e+00 1.864407e-01 0.000000e+00
 1.000000e+00 2.033898e-01 0.000000e+00
 1.000000e+00 2.203390e-01 0.000000e+00
 1.000000e+00 2.372881e-01 0.000000e+00
 1.000000e+00 2.542373e-01 0.000000e+00
 1.000000e+00 2.711864e-01 0.000000e+00
 1.000000e+00 2.881356e-01 0.000000e+00
 1.000000e+00 3.050847e-01 0.000000e+00
 1.000000e+00 3.220339e-01 0.000000e+00
 1.000000e+00 3.389831e-01 0.000000e+00
 1.000000e+00 3.559322e-01 0.000000e+00
 1.000000e+00 3.728814e-01 0.000000e+00
 1.000000e+00 3.898305e-01 0.000000e+00
 1.000000e+00 4.067797e-01 0.000000e+00
 1.000000e+00 4.237288e-01 0.000000e+00
 1.000000e+00 4.406780e-01 0.000000e+00
 1.000000e+00 4.576271e-01 0.000000e+00
 1.000000e+00 4.745763e-01 0.000000e+00
 1.000000e+00 4.915254e-01 0.000000e+00
 1.000000e+00 5.084746e-01 0.000000e+00
 1.000000e+00 5.254237e-01 0.000000e+00
 1.000000e+00 5.423729e-01 0.000000e+00
 1.000000e+00 5.593220e-01 0.000000e+00
 1.000000e+00 5.762712e-01 0.000000e+00
 1.000000e+00 5.932203e-01 0.000000e+00
 1.000000e+00 6.101695e-01 0.000000e+00
 1.000000e+00 6.271186e-01 0.000000e+00
 1.000000e+00 6.440678e-01 0.000000e+00
 1.000000e+00 6.610169e-01 0.000000e+00
 1.000000e+00 6.779661e-01 0.000000e+00
 1.000000e+00 6.949153e-01 0.000000e+00
 1.000000e+00 7.118644e-01 0.000000e+00
 1.000000e+00 7.288136e-01 0.000000e+00
 1.000000e+00 7.457627e-01 0.000000e+00
 1.000000e+00 7.627119e-01 0.000000e+00
 1.000000e+00 7.796610e-01 0.000000e+00
 1.000000e+00 7.966102e-01 0.000000e+00
 1.000000e+00 8.135593e-01 0.000000e+00
 1.000000e+00 8.305085e-01 0.000000e+00
 1.000000e+00 8.474576e-01 0.000000e+00
 1.000000e+00 8.644068e-01 0.000000e+00
 1.000000e+00 8.813559e-01 0.000000e+00
 1.000000e+00 8.983051e-01 0.000000e+00
 1.000000e+00 9.152542e-01 0.000000e+00
 1.000000e+00 9.322034e-01 0.000000e+00
 1.000000e+00 9.491525e-01 0.000000e+00
 1.000000e+00 9.661017e-01 0.000000e+00
 1.000000e+00 9.830508e-01 0.000000e+00
 9.830508e-01 1.000000e+00 0.000000e+00
 9.661017e-01 1.000000e+00 0.000000e+00
 9.491525e-01 1.000000e+00 0.000000e+00
 9.322034e-01 1.000000e+00 0.000000e+00
 9.152542e-01 1.000000e+00 0.000000e+00
 8.983051e-01 1.000000e+00 0.000000e+00
 8.813559e-01 1.000000e+00 0.000000e+00
 8.644068e-01 1.000000e+00 0.000000e+00
 8.474576e-01 1.000000e+00 0.000000e+00
 8.305085e-01 1.000000e+00 0.000000e+00
 8.135593e-01 1.000000e+00 0.000000e+00
 7.966102e-01 1.000000e+00 0.000000e+00
 7.796610e-01 1.000000e+00 0.000000e+00
 7.627119e-01 1.000000e+00 0.000000e+00
 7.457627e-01 1.000000e+00 0.000000e+00
 7.288136e-01 1.000000e+00 0.000000e+00
 7.118644e-01 1.000000e+00 0.000000e+00
 6.949153e-01 1.000000e+00 0.000000e+00
 6.779661e-01 1.000000e+00 0.000000e+00
 6.610169e-01 1.000000e+00 0.000000e+00
 6.440678e-01 1.000000e+00 0.000000e+00
 6.271186e-01 1.000000e+00 0.000000e+00
 6.101695e-01 1.000000e+00 0.000000e+00
 5.932203e-01 1.000000e+00 0.000000e+00
 5.762712e-01 1.000000e+00 0.000000e+00
 5.593220e-01 1.000000e+00 0.000000e+00
 5.423729e-01 1.000000e+00 0.000000e+00
 5.254237e-01 1.000000e+00 0.000000e+00
 5.084746e-01 1.000000e+00 0.000000e+00
 4.915254e-01 1.000000e+00 0.000000e+00
 4.745763e-01 1.000000e+00 0.000000e+00
 4.576271e-01 1.000000e+00 0.000000e+00
 4.406780e-01 1.000000e+00 0.000000e+00
 4.237288e-01 1.000000e+00 0.000000e+00
 4.067797e-01 1.000000e+00 0.000000e+00
 3.898305e-01 1.000000e+00 0.000000e+00
 3.728814e-01 1.000000e+00 0.000000e+00
 3.559322e-01 1.000000e+00 0.000000e+00
 3.389831e-01 1.000000e+00 0.000000e+00
 3.220339e-01 1.000000e+00 0.000000e+00
 3.050847e-01 1.000000e+00 0.000000e+00
 2.881356e-01 1.000000e+00 0.000000e+00
 2.711864e-01 1.000000e+00 0.000000e+00
 2.542373e-01 1.000000e+00 0.000000e+00
 2.372881e-01 1.000000e+00 0.000000e+00
 2.203390e-01 1.000000e+00 0.000000e+00
 2.033898e-01 1.000000e+00 0.000000e+00
 1.864407e-01 1.000000e+00 0.000000e+00
 1.694915e-01 1.000000e+00 0.000000e+00
 1.525424e-01 1.000000e+00 0.000000e+00
 1.355932e-01 1.000000e+00 0.000000e+00
 1.186441e-01 1.000000e+00 0.000000e+00
 1.016949e-01 1.000000e+00 0.000000e+00
 8.474576e-02 1.000000e+00 0.000000e+00
 6.779661e-02 1.000000e+00 0.000000e+00
 5.084746e-02 1.000000e+00 0.000000e+00
 3.389831e-02 1.000000e+00 0.000000e+00
 1.694915e-02 1.000000e+00 0.000000e+00
 0.000000e+00 9.830508e-01 0.000000e+00
 0.000000e+00 9.661017e-01 0.000000e+00
 0.000000e+00 9.491525e-01 0.000000e+00
 0.000000e+00 9.322034e-01 0.000000e+00
 0.000000e+00 9.152542e-01 0.000000e+00
 0.000000e+00 8.983051e-01 0.000000e+00
 0.000000e+00 8.813559e-01 0.000000e+00
 0.000000e+00 8.644068e-01 0.000000e+00
 0.000000e+00 8.474576e-01 0.000000e+00
 0.000000e+00 8.305085e-01 0.000000e+00
 0.000000e+00 8.135593e-01 0.000000e+00
 0.000000e+00 7.966102e-01 0.000000e+00
 0.000000e+00 7.796610e-01 0.000000e+00
 0.000000e+00 7.627119e-01 0.000000e+00
 0.000000e+00 7.457627e-01 0.000000e+00
 0.000000e+00 7.288136e-01 0.000000e+00
 0.000000e+00 7.118644e-01 0.000000e+00
 0.000000e+00 6.949153e-01 0.000000e+00
 0.000000e+00 6.779661e-01 0.000000e+00
 0.000000e+00 6.610169e-01 0.000000e+00
 0.000000e+00 6.440678e-01 0.000000e+00
 0.000000e+00 6.271186e-01 0.000000e+00
 0.000000e+00 6.101695e-01 0.000000e+00
 0.000000e+00 5.932203e-01 0.000000e+00
 0.000000e+00 5.762712e-01 0.000000e+00
 0.000000e+00 5.593220e-01 0.000000e+00
 0.000000e+00 5.423729e-01 0.000000e+00
 0.000000e+00 5.254237e-01 0.000000e+00
 0.000000e+00 5.084746e-01 0.000000e+00
 0.000000e+00 4.915254e-01 0.000000e+00
 0.000000e+00 4.745763e-01 0.000000e+00
 0.000000e+00 4.576271e-01 0.000000e+00
 0.000000e+00 4.406780e-01 0.000000e+00
 0.000000e+00 4.237288e-01 0.000000e+00
 0.000000e+00 4.067797e-01 0.000000e+00
 0.000000e+00 3.898305e-01 0.000000e+00
 0.000000e+00 3.728814e-01 0.000000e+00
 0.000000e+00 3.559322e-01 0.000000e+00
 0.000000e+00 3.389831e-01 0.000000e+00
 0.000000e+00 3.220339e-01 0.000000e+00
 0.000000e+00 3.050847e-01 0.000000e+00
 0.000000e+00 2.881356e-01 0.000000e+00
 0.000000e+00 2.711864e-01 0.000000e+00
 0.000000e+00 2.542373e-01 0.000000e+00
 0.000000e+00 2.372881e-01 0.000000e+00
 0.000000e+00 2.203390e-01 0.000000e+00
 0.000000e+00 2.033898e-01 0.000000e+00
 0.000000e+00 1.864407e-01 0.000000e+00
 0.000000e+00 1.694915e-01 0.000000e+00
 0.000000e+00 1.525424e-01 0.000000e+00
 0.000000e+00 1.355932e-01 0.000000e+00
 0.000000e+00 1.186441e-01 0.000000e+00
 0.000000e+00 1.016949e-01 0.000000e+00
 0.000000e+00 8.474576e-02 0.000000e+00
 0.000000e+00 6.779661e-02 0.000000e+00
 0.000000e+00 5.084746e-02 0.000000e+00
 0.000000e+00 3.389831e-02 0.000000e+00
 0.000000e+00 1.694915e-02 0.000000e+00
 5.005028e-01 4.998391e-01 0.000000e+00
 7.071661e-01 2.918712e-01 0.000000e+00
 7.058461e-01 7.075282e-01 0.000000e+00
 2.933884e-01 7.073367e-01 0.000000e+00
 2.938885e-01 2.941144e-01 0.000000e+00
 4.999703e-01 7.791089e-01 0.000000e+00
 5.001569e-01 2.194803e-01 0.000000e+00
 2.181991e-01 4.983680e-01 0.000000e+00
[...]
<PointData Scalars="press" Vectors="vel">
<DataArray Name="press" type="Float64" NumberOfComponents="1" format="ascii">
 2.543879e+06
 2.441297e+06
 -2.457810e+06
 -2.665620e+06
 2.549785e+06
 2.538011e+06
 2.543795e+06
 2.532976e+06
 2.536579e+06
 2.535608e+06
 2.526997e+06
 2.523935e+06
 2.520950e+06
 2.519311e+06
 2.514210e+06
 2.510870e+06
 2.506425e+06
 2.503754e+06
 2.492897e+06
 2.497523e+06
 2.488016e+06
 2.480964e+06
 2.477813e+06
 2.467238e+06
 2.454866e+06
 2.437720e+06
 2.410243e+06
 2.393847e+06
 2.394639e+06
 2.409084e+06
 2.426305e+06
 2.443770e+06
 2.457564e+06
 2.471214e+06
 2.482240e+06
 2.495769e+06
 2.496270e+06
 2.505954e+06
 2.514132e+06
 2.513479e+06
 2.516159e+06
 2.515348e+06
 2.515185e+06
 2.511655e+06
 2.509546e+06
 2.508719e+06
 2.507802e+06
 2.506456e+06
 2.504913e+06
 2.496975e+06
 2.500941e+06
 2.499903e+06
 2.499961e+06
 2.496522e+06
 2.495953e+06
 2.495835e+06
 2.501768e+06
 2.501543e+06
 2.495203e+06
 2.495992e+06
 2.475834e+06
 2.458581e+06
 2.419403e+06
 2.362088e+06
 2.282527e+06
 2.197474e+06
 2.110217e+06
 2.021954e+06
 1.933268e+06
 1.844886e+06
 1.756661e+06
 1.669186e+06
 1.582144e+06
 1.496271e+06
 1.411092e+06
 1.326510e+06
 1.241903e+06
 1.157640e+06
 1.073138e+06
 9.887043e+05
 9.039299e+05
 8.189162e+05
 7.337222e+05
 6.480978e+05
 5.624412e+05
 4.762656e+05
 3.901010e+05
 3.034704e+05
 2.168974e+05
 1.299842e+05
 4.300512e+04
 -4.389741e+04
 -1.310198e+05
 -2.179857e+05
 -3.049718e+05
 -3.918942e+05
 -4.789363e+05
 -5.658012e+05
 -6.525239e+05
 -7.396586e+05
 -8.263022e+05
 -9.131388e+05
 -9.997355e+05
 -1.086265e+06
 -1.172713e+06
 -1.259006e+06
 -1.345011e+06
 -1.430956e+06
 -1.516584e+06
 -1.601856e+06
 -1.686875e+06
 -1.770870e+06
 -1.853993e+06
 -1.935304e+06
 -2.014406e+06
 -2.090912e+06
 -2.164404e+06
 -2.233836e+06
 -2.302544e+06
 -2.363136e+06
 -2.452327e+06
 -2.466989e+06
 -2.463793e+06
 -2.479125e+06
 -2.479300e+06
 -2.483728e+06
 -2.496418e+06
 -2.503353e+06
 -2.509008e+06
 -2.512846e+06
 -2.518560e+06
 -2.522462e+06
 -2.530211e+06
 -2.523693e+06
 -2.523806e+06
 -2.524940e+06
 -2.527135e+06
 -2.531396e+06
 -2.534743e+06
 -2.537209e+06
 -2.542704e+06
 -2.545666e+06
 -2.550576e+06
 -2.552570e+06
 -2.554928e+06
 -2.556421e+06
 -2.558440e+06
 -2.557638e+06
 -2.562374e+06
 -2.564576e+06
 -2.566883e+06
 -2.571149e+06
 -2.573142e+06
 -2.570477e+06
 -2.568669e+06
 -2.570999e+06
 -2.563025e+06
 -2.560349e+06
 -2.559928e+06
 -2.557142e+06
 -2.559776e+06
 -2.557958e+06
 -2.553524e+06
 -2.561506e+06
 -2.555207e+06
 -2.556354e+06
 -2.555826e+06
 -2.556916e+06
 -2.556946e+06
 -2.561303e+06
 -2.564453e+06
 -2.569064e+06
 -2.570267e+06
 -2.579857e+06
 -2.595705e+06
 -2.604890e+06
 -2.629902e+06
 -2.649530e+06
 -2.515370e+06
 -2.395249e+06
 -2.301170e+06
 -2.214733e+06
 -2.132521e+06
 -2.053252e+06
 -1.973668e+06
 -1.892346e+06
 -1.811827e+06
 -1.726982e+06
 -1.640176e+06
 -1.545275e+06
 -1.446361e+06
 -1.344291e+06
 -1.245341e+06
 -1.150997e+06
 -1.059845e+06
 -9.719026e+05
 -8.867351e+05
 -8.035294e+05
 -7.212700e+05
 -6.395331e+05
 -5.564300e+05
 -4.717309e+05
 -3.839624e+05
 -2.927431e+05
 -1.984075e+05
 -1.038370e+05
 -1.223963e+04
 7.452902e+04
 1.589878e+05
 2.431124e+05
 3.275292e+05
 4.122122e+05
 4.970505e+05
 5.820277e+05
 6.670846e+05
 7.519659e+05
 8.367489e+05
 9.212025e+05
 1.005408e+06
 1.089405e+06
 1.173125e+06
 1.256787e+06
 1.340401e+06
 1.424031e+06
 1.507794e+06
 1.591748e+06
 1.675929e+06
 1.760565e+06
 1.845701e+06
 1.931627e+06
 2.018654e+06
 2.106966e+06
 2.196930e+06
 2.289439e+06
 2.382595e+06
 2.481945e+06
 -7.341326e+03
 1.055849e+06
 -1.064116e+06
 -1.063496e+06
 1.062818e+06
 -1.409646e+06
 1.420633e+06
 -1.208087e+04
 5.918609e+03
 1.667659e+06
 -1.678481e+06
 1.654228e+06
 -1.666395e+06
 7.074744e+05
 -3.580362e+05
 -3.351375e+05
 7.394745e+05
 -1.747318e+06
 7.242385e+05
 -6.999931e+05
 -1.757168e+06
 -7.201158e+05
 1.757774e+06
 1.735322e+06
 4.077593e+05
 -7.017955e+05
 3.160514e+05
 1.002232e+06
 -1.004634e+06
 -1.962956e+06
 1.814433e+05
 1.961547e+06
 -1.876708e+05
 -1.116051e+06
 5.216853e+05
 1.974257e+06
 -1.227979e+06
 1.213117e+06
 -1.988569e+06
 -1.984447e+06
 -1.250449e+06
 1.984228e+06
 1.229078e+06
 -5.320390e+05
 -5.257706e+05
 1.231045e+06
 4.851922e+05
 -2.033201e+06
 2.014985e+06
 2.021048e+06
 -2.054986e+06
 5.981848e+05
 2.025803e+06
 -2.038975e+06
 -3.065793e+05
 3.157222e+05
 1.496087e+06
 1.229982e+06
 -1.502239e+06
 -1.514018e+06
 1.127689e+06
 -1.135811e+06
 1.533968e+06
 -1.146461e+06
 5.037266e+04
 -3.907504e+05
 2.625314e+05
 -1.490352e+03
 9.794683e+05
 7.327987e+05
 1.336876e+06
 -7.612009e+05
 -1.322385e+06
 -2.130154e+06
 -2.119518e+06
 1.603519e+06
 1.617043e+06
 2.108082e+06
 2.109913e+06
 -1.618487e+06
 -1.647967e+06
 -7.555480e+05
 -6.877172e+04
 -5.536443e+05
 2.134989e+06
 -2.113115e+06
 5.740738e+05
 -3.240116e+05
 2.140227e+06
 -8.164416e+05
 -2.128602e+06
 8.414055e+05
 -1.360258e+06
 -1.502034e+06
 -1.640332e+06
 -3.413032e+05
 3.373358e+05
 1.634305e+06
 1.540179e+06
 3.536824e+05
 -3.604325e+05
 7.857958e+05
 9.026891e+05
 -1.064139e+06
 1.404736e+06
 -9.245577e+05
 2.163154e+06
 -2.179879e+06
 9.258449e+05
 -1.050245e+05
 2.570068e+05
 -5.675939e+05
 -8.631196e+05
 -7.289587e+05
 -1.305583e+06
 -2.198069e+05
 -8.726043e+05
 6.655175e+05
 2.197265e+06
 -2.198075e+06
 -9.673202e+03
 2.972038e+04
 -5.846076e+05
 -3.058593e+04
 2.140700e+04
 1.724841e+06
 -1.723766e+06
 1.256861e+06
 -1.751650e+06
 1.727393e+06
 1.049466e+06
 -1.741273e+06
 -1.386655e+06
 1.721492e+06
 -1.372996e+06
 1.355391e+06
 8.997314e+05
 1.199998e+06
 1.025488e+06
 -2.219541e+06
 5.579721e+05
 -5.467925e+05
 2.224833e+06
 4.950835e+05
 7.313719e+03
 -5.449939e+05
 1.911984e+05
 2.744272e+05
 2.240470e+06
 -2.215380e+06
 -2.270045e+06
 2.237624e+06
 -1.188280e+06
 1.794990e+05
 3.533249e+05
 3.010930e+05
 -2.813586e+05
 2.235554e+06
 -2.232532e+06
 1.739572e+06
 -1.740573e+06
 1.381100e+06
 -1.754698e+06
 2.237359e+06
 -1.363349e+06
 -2.231600e+06
 -2.234933e+06
 -1.387905e+06
 1.363637e+06
 2.235110e+06
 1.343056e+06
 -1.805876e+06
 1.002652e+06
 -1.011096e+06
 1.793745e+06
 -1.010439e+06
 -5.184600e+05
 -1.041247e+06
 1.826254e+06
 -8.716564e+05
 7.880972e+05
 -2.282545e+05
 4.451951e+05
 -1.050052e+06
 -2.238616e+06
 -2.259479e+06
 -1.868623e+06
 1.843982e+06
 -1.897651e+06
 1.844969e+06
 2.248883e+06
 2.253591e+06
 7.078978e+05
 -5.793341e+05
 5.491320e+05
 9.630740e+05
 1.500255e+06
 -4.566118e+05
 -7.764383e+05
 -1.322118e+06
 1.225473e+06
 -1.237873e+06
 1.285142e+06
 -1.238622e+06
 -6.138149e+05
 1.223255e+05
 1.050159e+06
 1.079039e+06
 -2.253531e+06
 2.263976e+06
 -1.069600e+06
 -1.908682e+06
 1.895415e+06
 1.905141e+06
 -1.924043e+06
 -7.787172e+05
 5.812281e+05
 1.470471e+06
 -1.479574e+06
 1.486143e+06
 -1.491853e+06
 -2.595481e+05
 7.938712e+05
 7.942451e+05
 -1.539282e+06
 1.951382e+06
 -1.954561e+06
 -5.545814e+05
 5.699543e+05
 1.552460e+06
 -3.378316e+05
 3.941689e+05
 1.318477e+06
 -2.432667e+05
 -1.545011e+06
 6.523385e+05
 4.780821e+05
 8.787426e+05
 -1.983338e+05
 -8.838800e+05
 -8.819657e+05
 5.586248e+04
 -2.266133e+06
 2.280900e+06
 -2.587101e+05
 2.714371e+05
 -1.542330e+06
 1.530522e+06
 -1.565195e+06
 1.877279e+06
 -1.969591e+06
 -6.637196e+04
 1.963523e+06
 7.245293e+04
 -1.679013e+06
 -1.116107e+05
 3.582675e+05
 -1.939796e+06
 9.060655e+05
 1.395494e+06
 -4.937567e+05
 9.279730e+05
 -7.557473e+05
 1.991462e+06
 -1.084695e+05
 1.700842e+06
 -1.328986e+06
 -2.290183e+06
 1.133580e+06
 1.234288e+06
 -1.119200e+06
 2.284258e+06
 -1.532264e+06
 2.118708e+05
 -3.481077e+05
 1.542872e+06
 1.582240e+06
 2.451188e+05
 7.246698e+05
 -2.293383e+06
 -7.179911e+05
 2.290330e+06
 -3.139478e+05
 5.972875e+05
 -1.899012e+06
 -1.908462e+06
 1.889838e+06
 1.276079e+06
 -1.209728e+06
 1.073390e+06
 1.806216e+06
 1.793320e+06
 -1.823824e+06
 -5.382657e+05
 -1.803258e+06
 -7.986212e+05
 1.956794e+06
 -1.888490e+06
 -8.826108e+05
 -1.592200e+06
 -1.883868e+05
 1.201618e+06
 1.022878e+06
 7.623836e+05
 -9.019917e+05
 2.322438e+06
 -2.321614e+06
 1.537131e+06
 1.550680e+06
 -2.301703e+06
 2.327923e+06
 -1.596940e+06
 -1.566245e+06
 1.400199e+05
 3.584416e+04
 -1.314249e+06
 1.921643e+05
 1.045514e+06
 -4.044149e+05
 -1.395221e+05
 7.458919e+05
 -7.244977e+05
 -2.302313e+06
 2.327711e+06
 1.432938e+06
 -8.189223e+05
 8.386337e+05
 2.490728e+05
 -2.432651e+05
 1.827342e+06
 -1.841049e+06
 6.210260e+05
 -5.186958e+05
 4.893202e+05
 -2.306066e+06
 -4.750853e+05
 2.303191e+06
 -1.743188e+05
 -1.329655e+04
 -1.761312e+06
 1.747946e+06
 -5.039511e+05
 5.146178e+05
 -1.387678e+06
 1.231334e+06
 -1.414758e+06
 -1.453416e+06
 1.404316e+06
 -4.076935e+05
 8.347960e+05
 -2.043682e+06
 2.033925e+06
 -2.049204e+06
 1.949677e+05
 2.040261e+06
 -5.596553e+05
 2.343112e+06
 -1.482230e+06
 2.345527e+06
 -2.040779e+06
 -2.000448e+06
 -1.927603e+06
 -2.087873e+06
 -2.298714e+06
 -2.341945e+06
 -1.015871e+06
 1.996261e+06
 2.052851e+06
 -9.490597e+05
 2.045785e+06
 -1.239072e+06
 -9.346674e+05
 6.845084e+05
 2.009029e+06
 1.529325e+06
 -1.309480e+06
 3.888830e+05
 -9.848517e+05
 9.962821e+05
 8.828279e+05
 -8.836671e+05
 -3.636094e+05
 -8.224880e+05
 -1.449306e+05
 1.468576e+05
 1.550276e+06
 1.930746e+06
 -2.038744e+06
 1.440876e+06
 3.946413e+05
 7.616080e+05
 -2.340061e+05
 -1.172556e+06
 9.580188e+05
 8.704533e+05
 4.977538e+05
 -1.051947e+06
 -1.194556e+06
 -1.706104e+05
 -1.059407e+06
 -5.365424e+05
 5.161530e+05
 7.215948e+05
 -2.073165e+06
 -2.317735e+06
 -1.137386e+05
 2.328112e+06
 1.279841e+05
 1.586920e+06
 -3.960148e+05
 1.141941e+06
 1.044250e+05
 3.721572e+05
 -1.311636e+06
 1.455560e+06
 -1.194214e+06
 -1.175701e+06
 1.792142e+06
 1.165107e+06
 -1.129800e+06
 -1.303291e+06
 1.293335e+06
 -1.706563e+06
 1.784903e+06
 -1.687830e+06
 1.213981e+06
 1.953305e+06
 -2.031646e+06
 1.050579e+06
 7.000324e+04
 1.939044e+05
 1.154033e+06
 -5.662860e+05
 5.533064e+05
 -1.513062e+06
 1.116039e+06
 -6.792932e+05
 5.576062e+05
 -1.564564e+06
 -9.614862e+05
 2.353904e+06
 9.681305e+05
 -2.340632e+06
 9.185014e+05
 -3.617599e+05
 2.368255e+06
 -2.333478e+06
 9.186566e+05
 -8.965103e+05
 -1.479036e+06
 7.507840e+05
 1.078755e+06
 1.584293e+06
 -7.123658e+05
 -2.075644e+06
 2.071569e+06
 -2.089257e+06
 2.083078e+06
 2.133698e+06
 1.486139e+05
 -2.138568e+06
 -1.350713e+05
 -1.049770e+06
 -1.804909e+05
 -6.935850e+05
 1.379930e+06
 8.362082e+05
 -2.186164e+05
 4.301235e+05
 -2.338042e+06
 -4.332771e+05
 2.362851e+06
 2.038879e+05
 -7.106876e+05
 4.332129e+05
 6.376948e+05
 1.725037e+06
 1.716554e+06
 -2.364969e+06
 2.372419e+06
 -1.773269e+06
 -1.714855e+06
 -2.336243e+06
 1.705942e+06
 2.380059e+06
 -1.736544e+06
 -1.735939e+06
 3.206347e+05
 -1.648105e+06
 -9.235955e+05
 2.368704e+06
 1.221485e+06
 -2.332029e+06
 -1.226910e+06
 1.409623e+06
 -1.590261e+06
 -7.092204e+05
 1.741017e+06
 -2.308404e+06
 -2.383802e+06
 2.369195e+06
 2.382039e+06
 1.907313e+05
 -6.630624e+05
 6.712105e+05
 -2.085256e+06
 2.099533e+06
 -8.436109e+05
 2.113227e+06
 -1.133899e+06
 1.182923e+05
 2.362915e+06
 -1.008609e+05
 1.670421e+06
 -2.337582e+06
 -9.360876e+05
 1.887723e+06
 8.773903e+05
 -1.356376e+06
 -1.385221e+06
 1.348221e+06
 -6.639218e+05
 -6.220601e+05
 -2.156697e+06
 5.862234e+05
 1.212341e+06
 -6.119913e+05
 -1.236111e+06
 -2.158012e+06
 2.151487e+06
 1.204678e+06
 1.476514e+05
 -8.427775e+05
 1.855447e+06
 -3.667821e+05
 6.385252e+03
 1.083261e+06
 -3.991817e+05
 4.081188e+05
 1.884130e+06
 -1.903518e+06
 -1.229046e+06
 4.439223e+05
 -6.039989e+05
 7.097754e+05
 6.200458e+05
 -1.179162e+06
 -1.805436e+06
 -6.750004e+05
 5.065787e+05
 -1.378739e+06
 7.549601e+05
 2.137104e+06
 -2.143428e+06
 -1.720900e+05
 1.857275e+05
 3.605453e+04
 -7.767310e+05
 1.382056e+06
 -7.219775e+05
 -2.168009e+06
 -3.887204e+05
 3.920042e+05
 2.184179e+06
 -1.644178e+06
 1.508131e+06
 -1.502848e+06
 3.484887e+05
 1.635315e+06
 -1.534041e+06
 2.080858e+05
 -3.623801e+05
 4.868958e+05
 -1.894265e+06
 1.782351e+06
 -3.748821e+05
 9.298356e+05
 1.628629e+06
 1.572061e+06
 -1.631425e+06
 -1.580824e+06
 1.367362e+06
 1.515289e+06
 -1.650095e+06
 -1.593906e+06
 7.296964e+05
 1.469759e+05
 1.264634e+06
 -2.165621e+06
 2.076767e+06
 -2.360814e+06
 -1.268790e+06
 2.080855e+06
 -2.199374e+06
 -1.211145e+06
 2.373706e+06
 -1.695277e+06
 1.058471e+06
 1.632424e+06
 1.817804e+06
 2.116274e+06
 -1.364981e+06
 -4.660023e+05
 -1.923769e+06
 4.014177e+04
 -5.383766e+04
 1.884872e+06
 -8.829787e+05
 -1.912198e+06
 -1.905786e+06
 1.633835e+06
 1.161664e+06
 -1.841936e+06
 -3.716006e+05
 6.318470e+05
 4.074739e+05
 -4.223158e+05
 1.375203e+06
 -4.564492e+05
 -2.351395e+06
 2.386801e+06
 -5.912462e+05
 6.018007e+05
 -2.008041e+06
 6.486704e+05
 2.175584e+06
 -2.036098e+06
 -9.026637e+04
 2.177800e+06
 -7.166223e+05
 2.143271e+06
 -1.776727e+06
 8.976654e+05
 1.133672e+06
 1.646839e+06
 -1.428602e+05
 1.374097e+06
 -7.421535e+05
 -1.388362e+06
 1.331482e+06
 -1.385409e+06
 -1.603374e+06
 6.467988e+05
 1.158318e+05
 1.358423e+06
 -1.834140e+06
 8.579345e+05
 3.781462e+05
 1.704858e+06
 8.670510e+05
 1.013792e+06
 -1.206171e+06
 1.221470e+06
 1.095194e+06
 1.837561e+06
 -3.998545e+05
 -1.073022e+06
 -1.029628e+06
 -8.550971e+05
 -1.025855e+06
 -5.049785e+05
 -1.402321e+06
 -2.138743e+05
 1.198629e+06
 5.312385e+05
 -6.448360e+05
 3.533246e+05
 -1.026811e+04
 -2.362909e+06
 2.351973e+06
 -2.347514e+06
 -3.245689e+05
 2.383449e+06
 1.404085e+06
 5.937098e+04
 1.418899e+06
 -1.452751e+06
 -2.370060e+06
 -1.430683e+06
 1.381787e+06
 2.393235e+06
 3.707267e+05
 1.131919e+06
 -1.143654e+06
 -1.164019e+06
 2.782104e+05
 -7.216488e+05
 1.759859e+06
 -1.794324e+06
 -1.765766e+06
 1.752083e+06
 2.404265e+06
 -1.200277e+05
 2.398943e+06
 2.196940e+06
 -2.399986e+06
 -2.217156e+06
 -2.337543e+06
 2.199510e+06
 -2.173172e+06
 1.088539e+06
 5.192017e+05
 -2.301512e+05
 -6.849083e+05
 -1.187901e+06
 -1.269917e+05
 -2.151049e+06
 1.260500e+06
 1.402887e+06
 2.952457e+05
 3.613670e+05
 -1.271273e+06
 -5.435221e+05
 -1.286970e+06
 -1.034843e+06
 -9.066578e+05
 3.671637e+03
 -7.913650e+05
 1.374338e+06
 1.517916e+06
 2.164065e+06
 6.093848e+05
 1.646558e+06
 -6.937143e+05
 1.358550e+06
 8.539778e+05
 1.190234e+06
 -1.821174e+05
 1.695656e+06
 -1.276383e+06
 1.787877e+05
 2.112349e+06
 -6.113182e+05
 4.277130e+05
 -6.819266e+05
 7.012055e+05
 1.471922e+06
 7.543500e+05
 2.398158e+06
 -2.386816e+06
 1.479120e+06
 -1.913983e+06
 9.856635e+05
 1.646766e+06
 1.909301e+06
 -1.684309e+06
 2.148248e+04
 -2.347856e+06
 1.901105e+06
 -1.948274e+06
 -1.664264e+06
 2.190302e+06
 2.402636e+06
 -1.498533e+06
 -2.197385e+06
 -2.189069e+06
 -1.089550e+06
 -1.531847e+06
 1.816037e+06
 2.185683e+06
 -2.423490e+04
 1.480642e+06
 -1.436050e+06
 9.243247e+05
 -1.007909e+05
 1.969925e+06
 1.896852e+06
 6.493542e+05
 1.905158e+06
 9.066805e+05
 -9.974754e+05
 -9.902024e+05
 -2.216825e+06
 -2.235537e+06
 2.222563e+06
 1.257337e+06
 -1.663424e+06
 2.217797e+06
 -1.831877e+06
 -1.780116e+06
 2.574769e+05
 4.305262e+05
 -1.300949e+06
 -1.227034e+05
 8.400285e+05
 7.736587e+05
 -6.005381e+05
 2.363743e+06
 1.800188e+06
 -1.825681e+06
 -1.811902e+06
 -2.372728e+06
 1.800730e+06
 6.222847e+05
 1.580982e+06
 -7.439155e+05
 -1.086726e+06
 -1.893418e+06
 -4.258452e+05
 1.069110e+06
 -1.036437e+06
 -3.775781e+05
 -1.897242e+06
 -8.845522e+05
 1.321629e+06
 1.673609e+06
 -2.095488e+06
 -5.868514e+05
 -2.294721e+05
 4.853760e+05
 -1.063588e+06
 -1.546146e+06
 -3.733418e+05
 -3.061144e+05
 -2.701322e+05
 1.620457e+06
 -2.161797e+05
 -4.646231e+05
 2.171249e+05
 6.422916e+05
 9.776434e+05
 -9.548276e+05
 -4.769471e+05
 -1.987889e+06
 -1.990604e+06
 1.974581e+06
 -2.170724e+06
 1.071193e+06
 1.929803e+06
 1.920685e+06
 -1.929550e+06
 -1.946669e+06
 -1.138153e+06
 -5.147012e+05
 7.571931e+05
 6.091983e+05
 -1.460192e+06
 2.045565e+06
 -2.084867e+06
 1.258068e+06
 -5.023231e+05
 2.097311e+06
 4.622148e+05
 -9.643485e+05
 2.774619e+05
 -2.852201e+05
 -1.632184e+06
 -1.898392e+06
 -1.921706e+06
 2.011628e+06
 -2.017214e+06
 5.809866e+04
 -2.170323e+06
 -5.510512e+04
 1.482086e+06
 1.564758e+06
 1.158459e+04
 -4.591015e+05
 1.052556e+06
 2.406910e+06
 -1.540801e+06
 1.523540e+06
 -2.378399e+06
 -1.033358e+06
 -8.157214e+05
 3.436853e+05
 -2.362774e+06
 2.383850e+06
 8.264530e+05
 -5.440914e+05
 1.671587e+06
 1.514441e+06
 -9.136913e+05
 -1.414026e+06
 1.857189e+06
 5.344469e+05
 1.024252e+06
 -8.850396e+05
 2.036185e+06
 -1.717758e+06
 3.452658e+05
 1.666512e+06
 -1.687008e+06
 1.677089e+06
 -1.346648e+06
 -7.316061e+04
 -1.669870e+06
 1.865345e+06
 -1.172635e+06
 1.393724e+06
 1.901100e+06
 -1.835891e+06
 1.151257e+06
 -8.051666e+05
 1.826647e+06
 -1.104110e+05
 1.019613e+06
 1.122942e+05
 -2.184206e+06
 -1.489632e+06
 -9.319196e+05
 -2.157155e+06
 4.310621e+05
 -1.180589e+06
 2.809021e+05
 1.169959e+05
 9.234683e+05
 -1.618814e+06
 9.702085e+05
 -1.772469e+06
 -3.621173e+05
 1.759604e+06
 -1.935806e+05
 3.666045e+05
 -5.991168e+05
 6.086566e+05
 2.241454e+06
 -2.249710e+06
 3.981946e+05
 -2.609124e+05
 1.286594e+06
 -1.183417e+06
 1.754091e+06
 -9.108257e+05
 -1.759890e+06
 1.271569e+06
 -1.774579e+06
 8.518547e+05
 -1.192247e+06
 -9.262261e+04
 -3.008447e+05
 1.126807e+05
 -1.034601e+05
 1.786973e+06
 1.466594e+06
 -1.576245e+06
 1.329210e+05
 -1.498011e+06
 6.168646e+05
 -1.964880e+06
 1.879500e+06
 -2.029850e+05
 2.111918e+05
 9.875017e+05
 1.962866e+06
 7.241760e+05
 1.517711e+06
 1.667624e+06
 2.018676e+06
 1.286532e+06
 -1.999902e+06
 -1.631549e+06
 -4.523787e+05
 1.716779e+06
 2.392487e+06
 -1.051650e+06
 -2.380233e+06
 3.773584e+04
 -1.350117e+06
 8.810740e+05
 -1.268771e+06
 -1.169562e+04
 -1.290640e+06
 -1.849312e+06
 1.256187e+06
 -4.858394e+05
 -9.670954e+05
 -6.966214e+03
 9.732342e+05
 -1.452827e+06
 3.410804e+05
 7.866149e+05
 1.343108e+06
 -3.945081e+05
 2.614365e+05
 -2.389188e+06
 2.419189e+06
 -3.032062e+05
 -1.805772e+06
 1.318270e+06
 -2.211264e+06
 -1.413431e+06
 1.047886e+05
 9.003194e+05
 -2.381735e+06
 1.060865e+06
 -1.397702e+06
 -1.056626e+06
 1.388081e+06
 2.395607e+06
 2.223891e+06
 -9.437151e+05
 1.161617e+06
 1.528817e+06
 3.579952e+05
 -1.569348e+06
 -1.542649e+06
 -7.461817e+05
 7.654948e+05
 2.015415e+06
 6.825946e+05
 -3.142960e+05
 -2.015656e+06
 -2.022519e+06
 2.004765e+06
 -6.524471e+05
 1.670461e+06
 -7.298781e+04
 2.098631e+06
 1.057745e+05
 3.883180e+05
 2.094210e+06
 2.261426e+06
 8.532981e+05
 2.513382e+05
 -8.431465e+05
 2.248910e+05
 1.204847e+06
 -1.865958e+06
 9.668051e+05
 -2.060290e+06
 -2.390705e+05
 2.577451e+05
 -5.127015e+05
 1.633807e+06
 -1.232371e+06
 2.231530e+06
 1.547977e+06
 1.031661e+06
 -1.036155e+06
 2.224710e+06
 2.204628e+06
 1.637697e+06
 2.222908e+06
 -2.113964e+06
 -2.130688e+06
 -2.085424e+06
 -1.913267e+06
 -6.780890e+04
 2.079891e+06
 8.131753e+04
 1.164145e+06
 -7.011175e+04
 -1.436452e+06
 1.964296e+06
 1.989823e+06
 4.849260e+05
 1.606466e+06
 -2.234086e+06
 7.028448e+05
 -1.635133e+06
 8.453333e+05
 -8.211599e+05
 2.378602e+06
 2.429253e+05
 2.032057e+06
 1.071365e+06
 -2.383899e+06
 -2.250052e+05
 -2.097564e+05
 -1.925607e+05
 -2.092368e+05
 9.508287e+05
 -1.279252e+06
 -6.459227e+05
 -2.897765e+05
 5.122841e+05
 1.276214e+06
 -1.404719e+06
 -2.086171e+06
 7.616278e+04
 -2.074474e+06
 -9.467481e+05
 9.501814e+05
 2.231687e+05
 -3.775327e+04
 2.002488e+06
 -8.062783e+05
 5.171097e+05
 7.481701e+05
 -2.138966e+06
 -8.072106e+05
 6.794847e+05
 -6.612203e+05
 9.906502e+05
 -1.257616e+06
 -2.220876e+06
 -1.356130e+06
 2.220039e+06
 1.293905e+06
 1.101411e+06
 1.108016e+06
 -1.110553e+06
 -2.137467e+06
 2.128879e+06
 -1.464324e+06
 -1.292634e+06
 1.289157e+06
 1.168405e+06
 2.433991e+06
 6.070301e+05
 -8.083359e+05
 -2.382012e+06
 8.260691e+05
 2.497669e+05
 -5.083895e+05
 1.703915e+06
 -1.404170e+06
 -1.634651e+06
 -1.021889e+06
 -3.462651e+05
 -8.738749e+05
 1.459714e+06
 8.981928e+05
 -1.309606e+06
 7.134176e+05
 -2.138066e+06
 -7.306675e+05
 -3.107401e+05
 -1.463567e+06
 5.904448e+05
 -6.080450e+05
 -2.035351e+06
 1.128268e+06
 -1.669724e+06
 -2.408219e+06
 1.620690e+06
 -2.376048e+06
 2.434815e+06
 1.610867e+06
 2.439266e+06
 -1.632119e+06
 -2.346624e+05
 -1.673949e+06
 1.865564e+06