<?xml version="1.0"?>
<VTKFile type="UnstructuredGrid" version="0.1">
<UnstructuredGrid>
<Piece NumberOfPoints="2601" NumberOfCells="2500">
<Points>
<DataArray NumberOfComponents="3" type="Float64" format="ascii">
 0.000000e+00 0.000000e+00 0.000000e+00
 2.000000e+00 0.000000e+00 0.000000e+00
 4.000000e+00 0.000000e+00 0.000000e+00
 6.000000e+00 0.000000e+00 0.000000e+00
 8.000000e+00 0.000000e+00 0.000000e+00
 1.000000e+01 0.000000e+00 0.000000e+00
 1.200000e+01 0.000000e+00 0.000000e+00
 1.400000e+01 0.000000e+00 0.000000e+00
 1.600000e+01 0.000000e+00 0.000000e+00
 1.800000e+01 0.000000e+00 0.000000e+00
 2.000000e+01 0.000000e+00 0.000000e+00
 2.200000e+01 0.000000e+00 0.000000e+00
 2.400000e+01 0.000000e+00 0.000000e+00
 2.600000e+01 0.000000e+00 0.000000e+00
 2.800000e+01 0.000000e+00 0.000000e+00
 3.000000e+01 0.000000e+00 0.000000e+00
 3.200000e+01 0.000000e+00 0.000000e+00
 3.400000e+01 0.000000e+00 0.000000e+00
 3.600000e+01 0.000000e+00 0.000000e+00
 3.800000e+01 0.000000e+00 0.000000e+00
 4.000000e+01 0.000000e+00 0.000000e+00
 4.200000e+01 0.000000e+00 0.000000e+00
 4.400000e+01 0.000000e+00 0.000000e+00
 4.600000e+01 0.000000e+00 0.000000e+00
 4.800000e+01 0.000000e+00 0.000000e+00
 5.000000e+01 0.000000e+00 0.000000e+00
 5.200000e+01 0.000000e+00 0.000000e+00
 5.400000e+01 0.000000e+00 0.000000e+00
 5.600000e+01 0.000000e+00 0.000000e+00
 5.800000e+01 0.000000e+00 0.000000e+00
 6.000000e+01 0.000000e+00 0.000000e+00
 6.200000e+01 0.000000e+00 0.000000e+00
 6.400000e+01 0.000000e+00 0.000000e+00
 6.600000e+01 0.000000e+00 0.000000e+00
 6.800000e+01 0.000000e+00 0.000000e+00
 7.000000e+01 0.000000e+00 0.000000e+00
 7.200000e+01 0.000000e+00 0.000000e+00
 7.400000e+01 0.000000e+00 0.000000e+00
 7.600000e+01 0.000000e+00 0.000000e+00
 7.800000e+01 0.000000e+00 0.000000e+00
 8.000000e+01 0.000000e+00 0.000000e+00
 8.200000e+01 0.000000e+00 0.000000e+00
 8.400000e+01 0.000000e+00 0.000000e+00
 8.600000e+01 0.000000e+00 0.000000e+00
 8.800000e+01 0.000000e+00 0.000000e+00
 9.000000e+01 0.000000e+00 0.000000e+00
 9.200000e+01 0.000000e+00 0.000000e+00
 9.400000e+01 0.000000e+00 0.000000e+00
 9.600000e+01 0.000000e+00 0.000000e+00
 9.800000e+01 0.000000e+00 0.000000e+00
 1.000000e+02 0.000000e+00 0.000000e+00
 0.000000e+00 2.000000e+00 0.000000e+00
 2.000000e+00 2.000000e+00 0.000000e+00
 4.000000e+00 2.000000e+00 0.000000e+00
 6.000000e+00 2.000000e+00 0.000000e+00
 8.000000e+00 2.000000e+00 0.000000e+00
 1.000000e+01 2.000000e+00 0.000000e+00
 1.200000e+01 2.000000e+00 0.000000e+00
 1.400000e+01 2.000000e+00 0.000000e+00
 1.600000e+01 2.000000e+00 0.000000e+00
 1.800000e+01 2.000000e+00 0.000000e+00
 2.000000e+01 2.000000e+00 0.000000e+00
 2.200000e+01 2.000000e+00 0.000000e+00
 2.400000e+01 2.000000e+00 0.000000e+00
 2.600000e+01 2.000000e+00 0.000000e+00
 2.800000e+01 2.000000e+00 0.000000e+00
 3.000000e+01 2.000000e+00 0.000000e+00
 3.200000e+01 2.000000e+00 0.000000e+00
 3.400000e+01 2.000000e+00 0.000000e+00
 3.600000e+01 2.000000e+00 0.000000e+00
 3.800000e+01 2.000000e+00 0.000000e+00
 4.000000e+01 2.000000e+00 0.000000e+00
 4.200000e+01 2.000000e+00 0.000000e+00
 4.400000e+01 2.000000e+00 0.000000e+00
 4.600000e+01 2.000000e+00 0.000000e+00
 4.800000e+01 2.000000e+00 0.000000e+00
 5.000000e+01 2.000000e+00 0.000000e+00
 5.200000e+01 2.000000e+00 0.000000e+00
 5.400000e+01 2.000000e+00 0.000000e+00
 5.600000e+01 2.000000e+00 0.000000e+00
 5.800000e+01 2.000000e+00 0.000000e+00
 6.000000e+01 2.000000e+00 0.000000e+00
 6.200000e+01 2.000000e+00 0.000000e+00
 6.400000e+01 2.000000e+00 0.000000e+00
 6.600000e+01 2.000000e+00 0.000000e+00
 6.800000e+01 2.000000e+00 0.000000e+00
 7.000000e+01 2.000000e+00 0.000000e+00
 7.200000e+01 2.000000e+00 0.000000e+00
 7.400000e+01 2.000000e+00 0.000000e+00
 7.600000e+01 2.000000e+00 0.000000e+00
 7.800000e+01 2.000000e+00 0.000000e+00
 8.000000e+01 2.000000e+00 0.000000e+00
 8.200000e+01 2.000000e+00 0.000000e+00
 8.400000e+01 2.000000e+00 0.000000e+00
 8.600000e+01 2.000000e+00 0.000000e+00
 8.800000e+01 2.000000e+00 0.000000e+00
 9.000000e+01 2.000000e+00 0.000000e+00
 9.200000e+01 2.000000e+00 0.000000e+00
 9.400000e+01 2.000000e+00 0.000000e+00
 9.600000e+01 2.000000e+00 0.000000e+00
 9.800000e+01 2.000000e+00 0.000000e+00
 1.000000e+02 2.000000e+00 0.000000e+00
 0.000000e+00 4.000000e+00 0.000000e+00
 2.000000e+00 4.000000e+00 0.000000e+00
 4.000000e+00 4.000000e+00 0.000000e+00
 6.000000e+00 4.000000e+00 0.000000e+00
 8.000000e+00 4.000000e+00 0.000000e+00
 1.000000e+01 4.000000e+00 0.000000e+00
 1.200000e+01 4.000000e+00 0.000000e+00
 1.400000e+01 4.000000e+00 0.000000e+00
 1.600000e+01 4.000000e+00 0.000000e+00
 1.800000e+01 4.000000e+00 0.000000e+00
 2.000000e+01 4.000000e+00 0.000000e+00
 2.200000e+01 4.000000e+00 0.000000e+00
 2.400000e+01 4.000000e+00 0.000000e+00
 2.600000e+01 4.000000e+00 0.000000e+00
 2.800000e+01 4.000000e+00 0.000000e+00
 3.000000e+01 4.000000e+00 0.000000e+00
 3.200000e+01 4.000000e+00 0.000000e+00
 3.400000e+01 4.000000e+00 0.000000e+00
 3.600000e+01 4.000000e+00 0.000000e+00
 3.800000e+01 4.000000e+00 0.000000e+00
 4.000000e+01 4.000000e+00 0.000000e+00
 4.200000e+01 4.000000e+00 0.000000e+00
 4.400000e+01 4.000000e+00 0.000000e+00
 4.600000e+01 4.000000e+00 0.000000e+00
 4.800000e+01 4.000000e+00 0.000000e+00
 5.000000e+01 4.000000e+00 0.000000e+00
 5.200000e+01 4.000000e+00 0.000000e+00
 5.400000e+01 4.000000e+00 0.000000e+00
 5.600000e+01 4.000000e+00 0.000000e+00
 5.800000e+01 4.000000e+00 0.000000e+00
 6.000000e+01 4.000000e+00 0.000000e+00
 6.200000e+01 4.000000e+00 0.000000e+00
 6.400000e+01 4.000000e+00 0.000000e+00
 6.600000e+01 4.000000e+00 0.000000e+00
 6.800000e+01 4.000000e+00 0.000000e+00
 7.000000e+01 4.000000e+00 0.000000e+00
 7.200000e+01 4.000000e+00 0.000000e+00
 7.400000e+01 4.000000e+00 0.000000e+00
 7.600000e+01 4.000000e+00 0.000000e+00
 7.800000e+01 4.000000e+00 0.000000e+00
 8.000000e+01 4.000000e+00 0.000000e+00
 8.200000e+01 4.000000e+00 0.000000e+00
 8.400000e+01 4.000000e+00 0.000000e+00
 8.600000e+01 4.000000e+00 0.000000e+00
 8.800000e+01 4.000000e+00 0.000000e+00
 9.000000e+01 4.000000e+00 0.000000e+00
 9.200000e+01 4.000000e+00 0.000000e+00
 9.400000e+01 4.000000e+00 0.000000e+00
 9.600000e+01 4.000000e+00 0.000000e+00
 9.800000e+01 4.000000e+00 0.000000e+00
 1.000000e+02 4.000000e+00 0.000000e+00
 0.000000e+00 6.000000e+00 0.000000e+00
 2.000000e+00 6.000000e+00 0.000000e+00
 4.000000e+00 6.000000e+00 0.000000e+00
 6.000000e+00 6.000000e+00 0.000000e+00
 8.000000e+00 6.000000e+00 0.000000e+00
 1.000000e+01 6.000000e+00 0.000000e+00
 1.200000e+01 6.000000e+00 0.000000e+00
 1.400000e+01 6.000000e+00 0.000000e+00
 1.600000e+01 6.000000e+00 0.000000e+00
 1.800000e+01 6.000000e+00 0.000000e+00
 2.000000e+01 6.000000e+00 0.000000e+00
 2.200000e+01 6.000000e+00 0.000000e+00
 2.400000e+01 6.000000e+00 0.000000e+00
 2.600000e+01 6.000000e+00 0.000000e+00
 2.800000e+01 6.000000e+00 0.000000e+00
 3.000000e+01 6.000000e+00 0.000000e+00
 3.200000e+01 6.000000e+00 0.000000e+00
 3.400000e+01 6.000000e+00 0.000000e+00
 3.600000e+01 6.000000e+00 0.000000e+00
 3.800000e+01 6.000000e+00 0.000000e+00
 4.000000e+01 6.000000e+00 0.000000e+00
 4.200000e+01 6.000000e+00 0.000000e+00
 4.400000e+01 6.000000e+00 0.000000e+00
 4.600000e+01 6.000000e+00 0.000000e+00
 4.800000e+01 6.000000e+00 0.000000e+00
 5.000000e+01 6.000000e+00 0.000000e+00
 5.200000e+01 6.000000e+00 0.000000e+00
 5.400000e+01 6.000000e+00 0.000000e+00
 5.600000e+01 6.000000e+00 0.000000e+00
 5.800000e+01 6.000000e+00 0.000000e+00
 6.000000e+01 6.000000e+00 0.000000e+00
 6.200000e+01 6.000000e+00 0.000000e+00
 6.400000e+01 6.000000e+00 0.000000e+00
 6.600000e+01 6.000000e+00 0.000000e+00
 6.800000e+01 6.000000e+00 0.000000e+00
 7.000000e+01 6.000000e+00 0.000000e+00
 7.200000e+01 6.000000e+00 0.000000e+00
 7.400000e+01 6.000000e+00 0.000000e+00
 7.600000e+01 6.000000e+00 0.000000e+00
 7.800000e+01 6.000000e+00 0.000000e+00
 8.000000e+01 6.000000e+00 0.000000e+00
 8.200000e+01 6.000000e+00 0.000000e+00
 8.400000e+01 6.000000e+00 0.000000e+00
 8.600000e+01 6.000000e+00 0.000000e+00
 8.800000e+01 6.000000e+00 0.000000e+00
 9.000000e+01 6.000000e+00 0.000000e+00
 9.200000e+01 6.000000e+00 0.000000e+00
 9.400000e+01 6.000000e+00 0.000000e+00
 9.600000e+01 6.000000e+00 0.000000e+00
 9.800000e+01 6.000000e+00 0.000000e+00
 1.000000e+02 6.000000e+00 0.000000e+00
 0.000000e+00 8.000000e+00 0.000000e+00
 2.000000e+00 8.000000e+00 0.000000e+00
 4.000000e+00 8.000000e+00 0.000000e+00
 6.000000e+00 8.000000e+00 0.000000e+00
 8.000000e+00 8.000000e+00 0.000000e+00
 1.000000e+01 8.000000e+00 0.000000e+00
 1.200000e+01 8.000000e+00 0.000000e+00
 1.400000e+01 8.000000e+00 0.000000e+00
 1.600000e+01 8.000000e+00 0.000000e+00
 1.800000e+01 8.000000e+00 0.000000e+00
 2.000000e+01 8.000000e+00 0.000000e+00
 2.200000e+01 8.000000e+00 0.000000e+00
 2.400000e+01 8.000000e+00 0.000000e+00
 2.600000e+01 8.000000e+00 0.000000e+00
 2.800000e+01 8.000000e+00 0.000000e+00
 3.000000e+01 8.000000e+00 0.000000e+00
 3.200000e+01 8.000000e+00 0.000000e+00
 3.400000e+01 8.000000e+00 0.000000e+00
 3.600000e+01 8.000000e+00 0.000000e+00
 3.800000e+01 8.000000e+00 0.000000e+00
 4.000000e+01 8.000000e+00 0.000000e+00
 4.200000e+01 8.000000e+00 0.000000e+00
 4.400000e+01 8.000000e+00 0.000000e+00
 4.600000e+01 8.000000e+00 0.000000e+00
 4.800000e+01 8.000000e+00 0.000000e+00
 5.000000e+01 8.000000e+00 0.000000e+00
 5.200000e+01 8.000000e+00 0.000000e+00
 5.400000e+01 8.000000e+00 0.000000e+00
 5.600000e+01 8.000000e+00 0.000000e+00
 5.800000e+01 8.000000e+00 0.000000e+00
 6.000000e+01 8.000000e+00 0.000000e+00
 6.200000e+01 8.000000e+00 0.000000e+00
 6.400000e+01 8.000000e+00 0.000000e+00
 6.600000e+01 8.000000e+00 0.000000e+00
 6.800000e+01 8.000000e+00 0.000000e+00
 7.000000e+01 8.000000e+00 0.000000e+00
 7.200000e+01 8.000000e+00 0.000000e+00
 7.400000e+01 8.000000e+00 0.000000e+00
 7.600000e+01 8.000000e+00 0.000000e+00
 7.800000e+01 8.000000e+00 0.000000e+00
[...]
<PointData Scalars="talus">
<DataArray Name="talus" type="Float64" NumberOfComponents="1" format="ascii">
 -2.996326e+01
 -2.952648e+01
 -2.841811e+01
 -2.695334e+01
 -2.530594e+01
 -2.356989e+01
 -2.179811e+01
 -2.002346e+01
 -1.827025e+01
 -1.656077e+01
 -1.491922e+01
 -1.337384e+01
 -1.195728e+01
 -1.070470e+01
 -9.648326e+00
 -8.808543e+00
 -8.184524e+00
 -7.751362e+00
 -7.468921e+00
 -7.294689e+00
 -7.192184e+00
 -7.134047e+00
 -7.101896e+00
 -7.084376e+00
 -7.074886e+00
 -7.069748e+00
 -7.066961e+00
 -7.065446e+00
 -7.064623e+00
 -7.064174e+00
 -7.063930e+00
 -7.063797e+00
 -7.063724e+00
 -7.063685e+00
 -7.063664e+00
 -7.063652e+00
 -7.063646e+00
 -7.063643e+00
 -7.063641e+00
 -7.063640e+00
 -7.063640e+00
 -7.063639e+00
 -7.063639e+00
 -7.063639e+00
 -7.063639e+00
 -7.063639e+00
 -7.063639e+00
 -7.063640e+00
 -7.063640e+00
 -7.063640e+00
 -7.063641e+00
 -2.990152e+01
 -2.946579e+01
 -2.835802e+01
 -2.689085e+01
 -2.523806e+01
 -2.349351e+01
 -2.170978e+01
 -1.991905e+01
 -1.814464e+01
 -1.640756e+01
 -1.473052e+01
 -1.314038e+01
 -1.166955e+01
 -1.035557e+01
 -9.237399e+00
 -8.345694e+00
 -7.689034e+00
 -7.243699e+00
 -6.962675e+00
 -6.795718e+00
 -6.701062e+00
 -6.648944e+00
 -6.620709e+00
 -6.605515e+00
 -6.597332e+00
 -6.592909e+00
 -6.590510e+00
 -6.589207e+00
 -6.588498e+00
 -6.588112e+00
 -6.587902e+00
 -6.587788e+00
 -6.587725e+00
 -6.587692e+00
 -6.587673e+00
 -6.587663e+00
 -6.587658e+00
 -6.587655e+00
 -6.587654e+00
 -6.587653e+00
 -6.587652e+00
 -6.587652e+00
 -6.587652e+00
 -6.587652e+00
 -6.587652e+00
 -6.587652e+00
 -6.587652e+00
 -6.587653e+00
 -6.587653e+00
 -6.587654e+00
 -6.587654e+00
 -2.971837e+01
 -2.928608e+01
 -2.818094e+01
 -2.670794e+01
 -2.504090e+01
 -2.327359e+01
 -2.145771e+01
 -1.962387e+01
 -1.779299e+01
 -1.598294e+01
 -1.421273e+01
 -1.250576e+01
 -1.089329e+01
 -9.418562e+00
 -8.138973e+00
 -7.116598e+00
 -6.389026e+00
 -5.931286e+00
 -5.668568e+00
 -5.528601e+00
 -5.457527e+00
 -5.421360e+00
 -5.402804e+00
 -5.393118e+00
 -5.387935e+00
 -5.385130e+00
 -5.383608e+00
 -5.382780e+00
 -5.382330e+00
 -5.382086e+00
 -5.381952e+00
 -5.381880e+00
 -5.381840e+00
 -5.381819e+00
 -5.381808e+00
 -5.381801e+00
 -5.381798e+00
 -5.381796e+00
 -5.381796e+00
 -5.381795e+00
 -5.381795e+00
 -5.381795e+00
 -5.381795e+00
 -5.381795e+00
 -5.381795e+00
 -5.381795e+00
 -5.381795e+00
 -5.381795e+00
 -5.381796e+00
 -5.381796e+00
 -5.381797e+00
 -2.942348e+01
 -2.899687e+01
 -2.789747e+01
 -2.641857e+01
 -2.473364e+01
 -2.293648e+01
 -2.107799e+01
 -1.918701e+01
 -1.728179e+01
 -1.537642e+01
 -1.348500e+01
 -1.162510e+01
 -9.822835e+00
 -8.122465e+00
 -6.602932e+00
 -5.385621e+00
 -4.580119e+00
 -4.151814e+00
 -3.943945e+00
 -3.856318e+00
 -3.822679e+00
 -3.806601e+00
 -3.799408e+00
 -3.795686e+00
 -3.793556e+00
 -3.792389e+00
 -3.791752e+00
 -3.791407e+00
 -3.791220e+00
 -3.791118e+00
 -3.791063e+00
 -3.791032e+00
 -3.791016e+00
 -3.791007e+00
 -3.791003e+00
 -3.791000e+00
 -3.790999e+00
 -3.790999e+00
 -3.790998e+00
 -3.790998e+00
 -3.790998e+00
 -3.790998e+00
 -3.790998e+00
 -3.790998e+00
 -3.790998e+00
 -3.790998e+00
 -3.790998e+00
 -3.790998e+00
 -3.790998e+00
 -3.791000e+00
 -3.791003e+00
 -2.903155e+01
 -2.861257e+01
 -2.752329e+01
 -2.604278e+01
 -2.434303e+01
 -2.251792e+01
 -2.061794e+01
 -1.867070e+01
 -1.669223e+01
 -1.469313e+01
 -1.268209e+01
 -1.066827e+01
 -8.664538e+00
 -6.697333e+00
 -4.838938e+00
 -3.294485e+00
 -2.399150e+00
 -2.116923e+00
 -1.994878e+00
 -1.985716e+00
 -1.999416e+00
 -1.995164e+00
 -1.999497e+00
 -1.999458e+00
 -1.999381e+00
 -1.999389e+00
 -1.999376e+00
 -1.999379e+00
 -1.999378e+00
 -1.999378e+00
 -1.999379e+00
 -1.999378e+00
 -1.999379e+00
 -1.999379e+00
 -1.999379e+00
 -1.999379e+00
 -1.999380e+00
 -1.999380e+00
 -1.999380e+00
 -1.999380e+00
 -1.999380e+00
 -1.999380e+00
 -1.999380e+00
 -1.999380e+00
 -1.999380e+00
 -1.999380e+00
 -1.999380e+00
 -1.999380e+00
 -1.999380e+00
 -1.999379e+00
 -1.999395e+00
 -2.855431e+01
 -2.814566e+01
 -2.707348e+01
 -2.560032e+01
 -2.389525e+01
 -2.205215e+01
 -2.012165e+01
 -1.813097e+01
 -1.609491e+01
 -1.402172e+01
 -1.191579e+01
 -9.778097e+00
 -7.604310e+00
 -5.380555e+00
 -3.091993e+00
 -8.487839e-01
 2.260036e-01
 -6.177085e-02
 1.552752e-02
 -4.551061e-03
 8.891296e-04
 -3.468427e-04
 -2.228869e-05
 -2.668980e-05
 -3.097888e-05
 -7.242242e-06
 -1.073981e-05
 -3.160517e-06
 -3.326647e-06
 -2.500765e-06
 -1.423576e-06
 -8.373501e-07
 -2.786046e-07
 -6.684195e-07
 -4.170319e-07
 -4.390608e-07
 -4.310659e-07
 -4.182382e-07
 -4.444192e-07
 -4.692511e-07
 -5.084874e-07
 -5.455081e-07
 -6.159569e-07
 -6.755654e-07
 -8.365272e-07
 -9.084990e-07
 -1.153906e-06
 -1.411243e-06
 -1.411934e-06
 -4.204143e-06
 6.149352e-05
 -2.799842e+01
 -2.760395e+01
 -2.655888e+01
 -2.510630e+01
 -2.341060e+01
 -2.156548e+01
 -1.962224e+01
 -1.760862e+01
 -1.553950e+01
 -1.342259e+01
 -1.126081e+01
 -9.052184e+00
 -6.785857e+00
 -4.427038e+00
 -1.833089e+00
 1.322969e+00
 1.677480e+00
 1.954688e+00
 1.861169e+00
 1.997317e+00
 1.996316e+00
 1.999982e+00
 1.999031e+00
 1.983262e+00
 1.999938e+00
 1.993038e+00
 1.999861e+00
 1.997090e+00
 1.999960e+00
 1.997592e+00
 1.998859e+00
 1.998714e+00
 1.999356e+00
 1.999696e+00
 1.999674e+00
 1.999733e+00
 1.999798e+00
 1.999827e+00
 1.999891e+00
 1.999906e+00
 1.999937e+00
 1.999978e+00
 1.999987e+00
 1.999993e+00
 1.999992e+00
 1.999996e+00
 1.999998e+00
 1.999996e+00
 2.000000e+00
 1.999952e+00
 1.999769e+00
 -2.736499e+01
 -2.698951e+01
 -2.598402e+01
 -2.456848e+01
 -2.290050e+01
 -2.107311e+01
 -1.913869e+01
 -1.712633e+01
 -1.505220e+01
 -1.292522e+01
 -1.074991e+01
 -8.527189e+00
 -6.254799e+00
 -3.935320e+00
 -1.669056e+00
 1.729472e+00
 2.546890e+00
 3.073855e+00
 3.375268e+00
 3.595175e+00
 3.735527e+00
 3.822361e+00
 3.877120e+00
 3.911824e+00
 3.939861e+00
 3.957970e+00
 3.971425e+00
 3.980043e+00
 3.986206e+00
 3.989913e+00
 3.992794e+00
 3.994869e+00
 3.996462e+00
 3.997595e+00
 3.998314e+00
 3.998804e+00
 3.999153e+00
 3.999399e+00
 3.999581e+00
 3.999709e+00
 3.999803e+00
 3.999876e+00
 3.999922e+00
 3.999951e+00
 3.999967e+00
 3.999976e+00
 3.999979e+00
 3.999976e+00
 3.999961e+00
 3.999921e+00
 3.999880e+00
 -2.664981e+01
 -2.629848e+01
 -2.534623e+01
 -2.398607e+01
 -2.236614e+01
 -2.057805e+01
 -1.867534e+01
 -1.668903e+01
 -1.463734e+01
 -1.253156e+01
 -1.037918e+01
 -8.185584e+00
 -5.954578e+00
 -3.682247e+00
 -1.281326e+00
 1.934310e+00
 2.991403e+00
 3.861249e+00
 4.509590e+00
 4.975345e+00
 5.300520e+00
 5.522074e+00
 5.671655e+00
 5.773097e+00
 5.843360e+00
 5.891863e+00
 5.925411e+00
 5.948447e+00
 5.964258e+00
 5.975049e+00
 5.982546e+00
 5.987813e+00
 5.991536e+00
 5.994146e+00
 5.995944e+00
 5.997183e+00
 5.998042e+00
 5.998643e+00
 5.999064e+00
 5.999361e+00
 5.999570e+00
 5.999718e+00
 5.999818e+00
 5.999884e+00
 5.999924e+00
 5.999946e+00
 5.999953e+00
 5.999949e+00
 5.999932e+00
 5.999908e+00
 5.999894e+00
 -2.584482e+01
 -2.552227e+01
 -2.463630e+01
 -2.334989e+01
 -2.179868e+01
 -2.007157e+01
 -1.822301e+01
 -1.628608e+01
 -1.428139e+01
 -1.222283e+01
 -1.012096e+01
 -7.985077e+00
 -5.825398e+00
 -3.663700e+00
 -1.630327e+00
 1.637013e+00
 3.029404e+00
 4.254684e+00
 5.269084e+00
 6.057373e+00
 6.640323e+00
 7.056675e+00
 7.347888e+00
 7.549599e+00
 7.689034e+00
 7.785338e+00
 7.851806e+00
 7.897625e+00
 7.929183e+00
 7.950917e+00
 7.965935e+00
 7.976357e+00
 7.983611e+00
 7.988658e+00
 7.992158e+00
 7.994581e+00
 7.996260e+00
 7.997427e+00
 7.998239e+00
 7.998806e+00
 7.999200e+00
 7.999474e+00
 7.999661e+00
 7.999785e+00
 7.999862e+00
 7.999903e+00
 7.999919e+00
 7.999915e+00
 7.999899e+00
 7.999881e+00
 7.999873e+00
 -2.494064e+01
 -2.465002e+01
 -2.384059e+01
 -2.264417e+01
 -2.118080e+01
 -1.953492e+01
 -1.776117e+01
 -1.589438e+01
 -1.395745e+01
 -1.196660e+01
 -9.934742e+00
 -7.873333e+00
 -5.792107e+00
 -3.688342e+00
 -1.439315e+00
 1.118109e+00
 2.790690e+00
 4.334519e+00
 5.691359e+00
 6.821914e+00
 7.713459e+00
 8.383461e+00
 8.869412e+00
 9.214062e+00
 9.455411e+00
 9.623261e+00
 9.739564e+00
 9.819980e+00
 9.875523e+00
 9.913874e+00
 9.940377e+00
 9.958719e+00
 9.971432e+00
 9.980247e+00
 9.986358e+00
 9.990593e+00
 9.993528e+00
 9.995564e+00
 9.996978e+00
 9.997959e+00
 9.998641e+00
 9.999111e+00
 9.999431e+00
 9.999643e+00
 9.999775e+00
 9.999847e+00
 9.999875e+00
 9.999873e+00
 9.999855e+00
 9.999836e+00
 9.999828e+00
 -2.392959e+01
 -2.367193e+01
 -2.294457e+01
 -2.184977e+01
 -2.048970e+01
 -1.894224e+01
 -1.726100e+01
 -1.548192e+01
 -1.362966e+01
 -1.172221e+01
 -9.774115e+00
 -7.798489e+00
 -5.809037e+00
 -3.828873e+00
 -1.963235e+00
 4.982327e-01
 2.446693e+00
 4.248691e+00
 5.886279e+00
 7.322258e+00
 8.524165e+00
 9.480379e+00
 1.020660e+01
 1.073880e+01
 1.111960e+01
 1.138806e+01
 1.157568e+01
 1.170614e+01
 1.179661e+01
 1.185924e+01
 1.190259e+01
 1.193260e+01
 1.195339e+01
 1.196779e+01
 1.197777e+01
 1.198469e+01
 1.198948e+01
 1.199280e+01
 1.199511e+01
 1.199671e+01
 1.199782e+01
 1.199858e+01
 1.199910e+01
 1.199944e+01
 1.199966e+01
 1.199977e+01
 1.199982e+01
 1.199982e+01
 1.199980e+01
 1.199977e+01
 1.199976e+01
 -2.280829e+01
 -2.258233e+01
 -2.193687e+01
 -2.094867e+01
 -1.970150e+01
 -1.826476e+01
 -1.668948e+01
 -1.501172e+01
 -1.325714e+01
 -1.144485e+01
 -9.590098e+00
 -7.705949e+00
 -5.804171e+00
 -3.893751e+00
 -1.947494e+00
 8.726485e-02
 2.156327e+00
 4.135233e+00
 5.981634e+00
 7.659452e+00
 9.130290e+00
 1.036391e+01
 1.135011e+01
 1.210417e+01
 1.266077e+01
 1.306164e+01
 1.334581e+01
 1.354529e+01
 1.368451e+01
 1.378133e+01
 1.384853e+01
 1.389515e+01
 1.392746e+01
 1.394986e+01
 1.396540e+01
 1.397617e+01
 1.398364e+01
 1.398882e+01
 1.399241e+01
 1.399490e+01
 1.399663e+01
 1.399782e+01
 1.399863e+01
 1.399916e+01
 1.399949e+01
 1.399968e+01
 1.399976e+01
 1.399976e+01
 1.399973e+01
 1.399970e+01
 1.399969e+01
 -2.157892e+01
 -2.138161e+01
 -2.081255e+01
 -1.992855e+01
 -1.879644e+01
 -1.747608e+01
 -1.601450e+01
 -1.444667e+01
 -1.279844e+01
 -1.108941e+01
 -9.334977e+00
 -7.547392e+00
 -5.735706e+00
 -3.904689e+00
 -2.059331e+00
 -2.306817e-01
 1.988318e+00
 4.085199e+00
 6.080536e+00
 7.936529e+00
 9.617444e+00
 1.108770e+01
 1.232043e+01
 1.330794e+01
 1.406610e+01
 1.462860e+01
 1.503583e+01
 1.532588e+01
 1.553032e+01
 1.567350e+01
 1.577337e+01
 1.584286e+01
 1.589116e+01
 1.592471e+01
 1.594799e+01
 1.596416e+01
 1.597538e+01
 1.598317e+01
 1.598858e+01
 1.599234e+01
 1.599494e+01
 1.599673e+01
 1.599795e+01
 1.599876e+01
 1.599927e+01
 1.599955e+01
 1.599968e+01
 1.599970e+01
 1.599966e+01
 1.599962e+01
 1.599961e+01
 -2.024908e+01
 -2.007629e+01
 -1.957442e+01
 -1.878583e+01
 -1.776339e+01
 -1.655763e+01
 -1.521062e+01
 -1.375524e+01
 -1.221673e+01
 -1.061468e+01
 -8.964653e+00
 -7.278832e+00
 -5.565723e+00
 -3.828607e+00
 -2.072814e+00
 -3.377790e-01
 1.962116e+00
 4.160286e+00
 6.256837e+00
 8.234621e+00
 1.006704e+01
 1.172085e+01
 1.316295e+01
 1.436979e+01
 1.533663e+01
 1.608049e+01
 1.663432e+01
 1.703690e+01
 1.732479e+01
 1.752847e+01
 1.767158e+01
 1.777169e+01
 1.784153e+01
 1.789018e+01
 1.792403e+01
 1.794758e+01
 1.796395e+01
 1.797533e+01
 1.798325e+01
 1.798874e+01
 1.799256e+01
 1.799519e+01
 1.799698e+01
 1.799818e+01
 1.799893e+01
 1.799937e+01
 1.799958e+01
 1.799963e+01
 1.799960e+01
 1.799956e+01
 1.799954e+01
 -1.883036e+01
 -1.867769e+01
 -1.823208e+01
 -1.752607e+01
 -1.660203e+01
 -1.550235e+01
 -1.426403e+01
 -1.291713e+01
 -1.148557e+01
 -9.988577e+00
 -8.441915e+00
 -6.858645e+00
 -5.249605e+00
 -3.621201e+00
 -1.929053e+00
 -1.493274e-01
 2.185891e+00
 4.418259e+00
 6.562340e+00
 8.610475e+00
 1.054184e+01
 1.232694e+01
 1.393215e+01
 1.532626e+01
 1.648915e+01
 1.741938e+01
 1.813546e+01
 1.866976e+01
 1.905933e+01
 1.933885e+01
 1.953724e+01
 1.967707e+01
 1.977516e+01
 1.984378e+01
 1.989168e+01
 1.992509e+01
 1.994838e+01
 1.996460e+01
 1.997591e+01
 1.998377e+01
 1.998924e+01
 1.999302e+01
 1.999560e+01
 1.999734e+01
 1.999845e+01
 1.999910e+01
 1.999944e+01
 1.999956e+01
 1.999956e+01
 1.999953e+01
 1.999951e+01
 -1.733650e+01
 -1.719980e+01
 -1.679954e+01
 -1.616189e+01
 -1.532179e+01
 -1.431526e+01
 -1.317460e+01
 -1.192679e+01
 -1.059387e+01
 -9.194124e+00
 -7.743229e+00
 -6.254859e+00
 -4.741385e+00
 -3.228055e+00
 -1.835757e+00
 4.584925e-01
 2.686510e+00
 4.881034e+00
 7.022895e+00
 9.097300e+00
 1.108350e+01
 1.295432e+01
 1.467762e+01
 1.621985e+01
 1.755228e+01
 1.865873e+01
 1.954132e+01
 2.022024e+01
 2.072733e+01
 2.109785e+01
 2.136442e+01
 2.155417e+01
 2.168829e+01
 2.178265e+01
 2.184882e+01
 2.189515e+01
 2.192754e+01
 2.195016e+01
 2.196597e+01
 2.197699e+01
 2.198467e+01
 2.198999e+01
 2.199365e+01
 2.199612e+01
 2.199772e+01
 2.199870e+01
 2.199924e+01
 2.199947e+01
 2.199954e+01
 2.199953e+01
 2.199952e+01
 -1.578162e+01
 -1.565728e+01
 -1.529254e+01
 -1.470962e+01
 -1.393850e+01
 -1.301050e+01
 -1.195404e+01
 -1.079299e+01
 -9.547016e+00
 -8.232772e+00
 -6.865183e+00
 -5.458106e+00
 -4.022186e+00
 -2.529342e+00
 -9.510230e-01
 1.299679e+00
 3.405348e+00
 5.531453e+00
 7.639627e+00
 9.708189e+00
 1.171524e+01
 1.363506e+01
 1.543754e+01
 1.708963e+01
 1.855910e+01
 1.982056e+01
 2.086220e+01
 2.168991e+01
 2.232550e+01
 2.280030e+01
 2.314773e+01
 2.339822e+01
 2.357700e+01
 2.370370e+01
 2.379309e+01
 2.385596e+01
 2.390009e+01
 2.393103e+01
 2.395270e+01
 2.396786e+01
 2.397846e+01
 2.398583e+01
 2.399091e+01
 2.399437e+01
 2.399666e+01
 2.399810e+01
 2.399893e+01
 2.399935e+01
 2.399953e+01
 2.399957e+01
 2.399958e+01
 -1.417889e+01
 -1.406392e+01
 -1.372640e+01
 -1.318625e+01
 -1.247038e+01
 -1.160691e+01
 -1.062125e+01
 -9.534409e+00
 -8.363282e+00
 -7.122042e+00
 -5.823911e+00
 -4.482142e+00
 -3.117896e+00
 -1.807223e+00
 2.007637e-01
 2.227693e+00
 4.278313e+00
 6.339075e+00
 8.400009e+00
 1.044281e+01
 1.244668e+01
 1.438768e+01
 1.623803e+01
 1.796656e+01
 1.954071e+01
 2.093060e+01
 2.211488e+01
 2.308645e+01
 2.385490e+01
 2.444355e+01
 2.488305e+01
 2.520493e+01
 2.543744e+01
 2.560377e+01
 2.572196e+01
 2.580559e+01
 2.586457e+01
 2.590609e+01
 2.593528e+01
 2.595578e+01
 2.597015e+01
 2.598018e+01
 2.598715e+01
 2.599192e+01
 2.599512e+01
 2.599719e+01
 2.599845e+01
 2.599915e+01
 2.599950e+01
 2.599964e+01
 2.599968e+01
 -1.253990e+01
 -1.243187e+01
 -1.211477e+01
 -1.160742e+01
 -1.093504e+01
 -1.012383e+01
 -9.197118e+00
 -8.173639e+00
 -7.067300e+00
 -5.888683e+00
 -4.648324e+00
 -3.357394e+00
 -2.003891e+00
 -5.920431e-01
 1.442862e+00
 3.330046e+00
 5.289206e+00
 7.281418e+00
 9.288726e+00
 1.129421e+01
 1.327890e+01
 1.522096e+01
 1.709516e+01
 1.887281e+01
 2.052273e+01
 2.201381e+01
 2.331931e+01
 2.442248e+01
 2.532105e+01
 2.602810e+01
 2.656814e+01
 2.697097e+01
 2.726617e+01
 2.747973e+01
 2.763285e+01
 2.774195e+01
 2.781935e+01
 2.787411e+01
 2.791277e+01
 2.794003e+01
 2.795921e+01
 2.797266e+01
 2.798206e+01
 2.798855e+01
 2.799296e+01
 2.799588e+01
 2.799772e+01
 2.799882e+01
 2.799943e+01
 2.799971e+01
 2.799979e+01
 -1.087452e+01
 -1.077144e+01
 -1.046919e+01
 -9.986394e+00
 -9.347736e+00
 -8.578433e+00
 -7.700627e+00
 -6.731882e+00
 -5.683814e+00
 -4.561144e+00
 -3.370655e+00
 -2.124053e+00
 -8.910694e-01
 8.999989e-01
 2.681450e+00
 4.526763e+00
 6.414035e+00
 8.339899e+00
 1.029125e+01
 1.225306e+01
 1.420831e+01
 1.613739e+01
 1.801758e+01
 1.982288e+01
 2.152435e+01
 2.309155e+01
 2.449554e+01
 2.571340e+01
 2.673333e+01
 2.755786e+01
 2.820312e+01
 2.869441e+01
 2.906048e+01
 2.932883e+01
 2.952326e+01
 2.966296e+01
 2.976276e+01
 2.983377e+01
 2.988415e+01
 2.991983e+01
 2.994505e+01
 2.996283e+01
 2.997531e+01
 2.998400e+01
 2.998998e+01
 2.999401e+01
 2.999664e+01
 2.999828e+01
 2.999924e+01
 2.999972e+01
 2.999987e+01
 -9.191140e+00
 -9.091277e+00
 -8.799106e+00
 -8.333942e+00
 -7.720819e+00
 -6.984709e+00
 -6.146882e+00
 -5.225040e+00
 -4.232919e+00
 -3.168155e+00
 -2.007814e+00
 -8.373852e-01
 7.352775e-01
 2.345282e+00
 4.049489e+00
 5.816746e+00
 7.636381e+00
 9.499236e+00
 1.139464e+01
 1.330963e+01
 1.522913e+01
 1.713564e+01
 1.900886e+01
 2.082542e+01
 2.255891e+01
 2.418061e+01
 2.566143e+01
 2.697525e+01
 2.810355e+01
 2.903967e+01
 2.979062e+01
 3.037509e+01
 3.081870e+01
 3.114884e+01
 3.139095e+01
 3.156661e+01
 3.169309e+01
 3.178369e+01
 3.184834e+01
 3.189436e+01
 3.192703e+01
 3.195018e+01
 3.196653e+01
 3.197800e+01
 3.198597e+01
 3.199143e+01
 3.199509e+01
 3.199744e+01
 3.199886e+01
 3.199962e+01
 3.199985e+01
 -7.497154e+00
 -7.398737e+00
 -7.112164e+00
 -6.658524e+00
 -6.063771e+00
 -5.353836e+00
 -4.547730e+00
 -3.662336e+00
 -2.718050e+00
 -1.748100e+00
 -6.079084e-01
 8.375467e-01
 2.310333e+00
 3.864566e+00
 5.493980e+00
 7.190762e+00
 8.944991e+00
 1.074732e+01
 1.258772e+01
 1.445465e+01
 1.633470e+01
 1.821228e+01
 2.006930e+01
 2.188484e+01
 2.363502e+01
 2.529331e+01
 2.683167e+01
 2.822292e+01
 2.944443e+01
 3.048249e+01
 3.133558e+01
 3.201470e+01
 3.254048e+01
 3.293833e+01
 3.323410e+01
 3.345108e+01
 3.360874e+01
 3.372252e+01
 3.380424e+01
 3.386272e+01
 3.390447e+01
 3.393420e+01
 3.395531e+01
 3.397023e+01
 3.398071e+01
 3.398797e+01
 3.399292e+01
 3.399618e+01
 3.399821e+01
 3.399931e+01
 3.399965e+01
 -5.799646e+00
 -5.700104e+00
 -5.414218e+00
 -4.966964e+00
 -4.382845e+00
 -3.694116e+00
 -2.917979e+00
 -2.042503e+00
 -1.160222e+00
 -5.058595e-02
 1.206934e+00
 2.527815e+00
 3.943506e+00
 5.436316e+00
 7.002399e+00
 8.635846e+00
 1.032910e+01
 1.207381e+01
 1.386078e+01
 1.567960e+01
 1.751826e+01
 1.936284e+01
 2.119720e+01
 2.300265e+01
 2.475771e+01
 2.643814e+01
 2.801760e+01
 2.946919e+01
 3.076828e+01
 3.189632e+01
 3.284469e+01
 3.361674e+01
 3.422683e+01
 3.469681e+01
 3.505147e+01
 3.531489e+01
 3.550824e+01
 3.564896e+01
 3.575074e+01
 3.582403e+01
 3.587665e+01
 3.591433e+01
 3.594123e+01
 3.596037e+01
 3.597392e+01
 3.598342e+01
 3.598997e+01
 3.599437e+01
 3.599715e+01
 3.599869e+01
 3.599918e+01
 -4.107425e+00
 -4.000567e+00
 -3.707668e+00
 -3.267363e+00
 -2.681957e+00
 -1.997790e+00
 -1.296232e+00
 -3.775856e-01
 6.679227e-01
 1.794640e+00
 2.984038e+00
 4.261311e+00
 5.620546e+00
 7.057201e+00
 8.566268e+00
 1.014242e+01
 1.177932e+01
 1.346970e+01
 1.520530e+01
 1.697676e+01
 1.877328e+01
 2.058241e+01
 2.238973e+01
 2.417851e+01
 2.592944e+01
 2.762056e+01
 2.922747e+01
 3.072438e+01
 3.208611e+01
 3.329122e+01
 3.432573e+01
 3.518613e+01
 3.588018e+01
 3.642486e+01
 3.684253e+01
 3.715697e+01
 3.739037e+01
 3.756182e+01
 3.768680e+01
 3.777741e+01
 3.784286e+01
 3.788998e+01
 3.792383e+01
 3.794806e+01
 3.796534e+01
 3.797756e+01
 3.798608e+01
 3.799187e+01
 3.799558e+01
 3.799765e+01
 3.799831e+01
 -2.438188e+00
 -2.305655e+00
 -1.977609e+00
 -1.579559e+00
 -9.622851e-01
 -2.681088e-01
 6.095088e-01
 1.553358e+00
 2.552057e+00
 3.633679e+00
 4.790256e+00
 6.024163e+00
 7.335565e+00
 8.721885e+00
 1.017928e+01
 1.170312e+01
 1.328791e+01
 1.492727e+01
 1.661384e+01
 1.833920e+01
 2.009366e+01
 2.186605e+01
 2.364344e+01
 2.541084e+01
 2.715091e+01
 2.884376e+01
 3.046703e+01
 3.199644e+01
 3.340723e+01
 3.467655e+01
 3.578679e+01
 3.672884e+01
 3.750411e+01
 3.812408e+01
 3.860754e+01
 3.897679e+01
 3.925422e+01
 3.946010e+01
 3.961147e+01
 3.972202e+01
 3.980238e+01
 3.986059e+01
 3.990264e+01
 3.993293e+01
 3.995466e+01
 3.997015e+01
 3.998105e+01
 3.998852e+01
 3.999335e+01
 3.999606e+01
 3.999694e+01
 -8.383121e-01
 -6.155040e-01
 -2.181697e-01
 3.876746e-01
 1.038303e+00
 1.768410e+00
 2.584616e+00
 3.484885e+00
 4.456647e+00
 5.502144e+00
 6.621999e+00
 7.816417e+00
 9.085003e+00
 1.042596e+01
 1.183630e+01
 1.331209e+01
 1.484854e+01
 1.644001e+01
 1.807995e+01
 1.976079e+01
 2.147381e+01
 2.320898e+01
 2.495467e+01
 2.669741e+01
 2.842160e+01
 3.010926e+01
 3.173998e+01
 3.329118e+01
 3.473910e+01
 3.606057e+01
 3.723573e+01
 3.825129e+01
 3.910310e+01
 3.979704e+01
 4.034753e+01
 4.077438e+01
 4.109928e+01
 4.134304e+01
 4.152392e+01
 4.165709e+01
 4.175455e+01
 4.182559e+01
 4.187721e+01
 4.191460e+01
 4.194159e+01
 4.196096e+01
 4.197467e+01
 4.198414e+01
 4.199031e+01
 4.199379e+01
 4.199491e+01
 1.438354e+00
 1.606009e+00