<?xml version="1.0"?>
<VTKFile type="UnstructuredGrid" version="0.1">
<UnstructuredGrid>
<Piece NumberOfPoints="2601" NumberOfCells="2500">
<Points>
<DataArray NumberOfComponents="3" type="Float64" format="ascii">
 0.000000e+00 0.000000e+00 0.000000e+00
 2.000000e+00 0.000000e+00 0.000000e+00
 4.000000e+00 0.000000e+00 0.000000e+00
 6.000000e+00 0.000000e+00 0.000000e+00
 8.000000e+00 0.000000e+00 0.000000e+00
 1.000000e+01 0.000000e+00 0.000000e+00
 1.200000e+01 0.000000e+00 0.000000e+00
 1.400000e+01 0.000000e+00 0.000000e+00
 1.600000e+01 0.000000e+00 0.000000e+00
 1.800000e+01 0.000000e+00 0.000000e+00
 2.000000e+01 0.000000e+00 0.000000e+00
 2.200000e+01 0.000000e+00 0.000000e+00
 2.400000e+01 0.000000e+00 0.000000e+00
 2.600000e+01 0.000000e+00 0.000000e+00
 2.800000e+01 0.000000e+00 0.000000e+00
 3.000000e+01 0.000000e+00 0.000000e+00
 3.200000e+01 0.000000e+00 0.000000e+00
 3.400000e+01 0.000000e+00 0.000000e+00
 3.600000e+01 0.000000e+00 0.000000e+00
 3.800000e+01 0.000000e+00 0.000000e+00
 4.000000e+01 0.000000e+00 0.000000e+00
 4.200000e+01 0.000000e+00 0.000000e+00
 4.400000e+01 0.000000e+00 0.000000e+00
 4.600000e+01 0.000000e+00 0.000000e+00
 4.800000e+01 0.000000e+00 0.000000e+00
 5.000000e+01 0.000000e+00 0.000000e+00
 5.200000e+01 0.000000e+00 0.000000e+00
 5.400000e+01 0.000000e+00 0.000000e+00
 5.600000e+01 0.000000e+00 0.000000e+00
 5.800000e+01 0.000000e+00 0.000000e+00
 6.000000e+01 0.000000e+00 0.000000e+00
 6.200000e+01 0.000000e+00 0.000000e+00
 6.400000e+01 0.000000e+00 0.000000e+00
 6.600000e+01 0.000000e+00 0.000000e+00
 6.800000e+01 0.000000e+00 0.000000e+00
 7.000000e+01 0.000000e+00 0.000000e+00
 7.200000e+01 0.000000e+00 0.000000e+00
 7.400000e+01 0.000000e+00 0.000000e+00
 7.600000e+01 0.000000e+00 0.000000e+00
 7.800000e+01 0.000000e+00 0.000000e+00
 8.000000e+01 0.000000e+00 0.000000e+00
 8.200000e+01 0.000000e+00 0.000000e+00
 8.400000e+01 0.000000e+00 0.000000e+00
 8.600000e+01 0.000000e+00 0.000000e+00
 8.800000e+01 0.000000e+00 0.000000e+00
 9.000000e+01 0.000000e+00 0.000000e+00
 9.200000e+01 0.000000e+00 0.000000e+00
 9.400000e+01 0.000000e+00 0.000000e+00
 9.600000e+01 0.000000e+00 0.000000e+00
 9.800000e+01 0.000000e+00 0.000000e+00
 1.000000e+02 0.000000e+00 0.000000e+00
 0.000000e+00 2.000000e+00 0.000000e+00
 2.000000e+00 2.000000e+00 0.000000e+00
 4.000000e+00 2.000000e+00 0.000000e+00
 6.000000e+00 2.000000e+00 0.000000e+00
 8.000000e+00 2.000000e+00 0.000000e+00
 1.000000e+01 2.000000e+00 0.000000e+00
 1.200000e+01 2.000000e+00 0.000000e+00
 1.400000e+01 2.000000e+00 0.000000e+00
 1.600000e+01 2.000000e+00 0.000000e+00
 1.800000e+01 2.000000e+00 0.000000e+00
 2.000000e+01 2.000000e+00 0.000000e+00
 2.200000e+01 2.000000e+00 0.000000e+00
 2.400000e+01 2.000000e+00 0.000000e+00
 2.600000e+01 2.000000e+00 0.000000e+00
 2.800000e+01 2.000000e+00 0.000000e+00
 3.000000e+01 2.000000e+00 0.000000e+00
 3.200000e+01 2.000000e+00 0.000000e+00
 3.400000e+01 2.000000e+00 0.000000e+00
 3.600000e+01 2.000000e+00 0.000000e+00
 3.800000e+01 2.000000e+00 0.000000e+00
 4.000000e+01 2.000000e+00 0.000000e+00
 4.200000e+01 2.000000e+00 0.000000e+00
 4.400000e+01 2.000000e+00 0.000000e+00
 4.600000e+01 2.000000e+00 0.000000e+00
 4.800000e+01 2.000000e+00 0.000000e+00
 5.000000e+01 2.000000e+00 0.000000e+00
 5.200000e+01 2.000000e+00 0.000000e+00
 5.400000e+01 2.000000e+00 0.000000e+00
 5.600000e+01 2.000000e+00 0.000000e+00
 5.800000e+01 2.000000e+00 0.000000e+00
 6.000000e+01 2.000000e+00 0.000000e+00
 6.200000e+01 2.000000e+00 0.000000e+00
 6.400000e+01 2.000000e+00 0.000000e+00
 6.600000e+01 2.000000e+00 0.000000e+00
 6.800000e+01 2.000000e+00 0.000000e+00
 7.000000e+01 2.000000e+00 0.000000e+00
 7.200000e+01 2.000000e+00 0.000000e+00
 7.400000e+01 2.000000e+00 0.000000e+00
 7.600000e+01 2.000000e+00 0.000000e+00
 7.800000e+01 2.000000e+00 0.000000e+00
 8.000000e+01 2.000000e+00 0.000000e+00
 8.200000e+01 2.000000e+00 0.000000e+00
 8.400000e+01 2.000000e+00 0.000000e+00
 8.600000e+01 2.000000e+00 0.000000e+00
 8.800000e+01 2.000000e+00 0.000000e+00
 9.000000e+01 2.000000e+00 0.000000e+00
 9.200000e+01 2.000000e+00 0.000000e+00
 9.400000e+01 2.000000e+00 0.000000e+00
 9.600000e+01 2.000000e+00 0.000000e+00
 9.800000e+01 2.000000e+00 0.000000e+00
 1.000000e+02 2.000000e+00 0.000000e+00
 0.000000e+00 4.000000e+00 0.000000e+00
 2.000000e+00 4.000000e+00 0.000000e+00
 4.000000e+00 4.000000e+00 0.000000e+00
 6.000000e+00 4.000000e+00 0.000000e+00
 8.000000e+00 4.000000e+00 0.000000e+00
 1.000000e+01 4.000000e+00 0.000000e+00
 1.200000e+01 4.000000e+00 0.000000e+00
 1.400000e+01 4.000000e+00 0.000000e+00
 1.600000e+01 4.000000e+00 0.000000e+00
 1.800000e+01 4.000000e+00 0.000000e+00
 2.000000e+01 4.000000e+00 0.000000e+00
 2.200000e+01 4.000000e+00 0.000000e+00
 2.400000e+01 4.000000e+00 0.000000e+00
 2.600000e+01 4.000000e+00 0.000000e+00
 2.800000e+01 4.000000e+00 0.000000e+00
 3.000000e+01 4.000000e+00 0.000000e+00
 3.200000e+01 4.000000e+00 0.000000e+00
 3.400000e+01 4.000000e+00 0.000000e+00
 3.600000e+01 4.000000e+00 0.000000e+00
 3.800000e+01 4.000000e+00 0.000000e+00
 4.000000e+01 4.000000e+00 0.000000e+00
 4.200000e+01 4.000000e+00 0.000000e+00
 4.400000e+01 4.000000e+00 0.000000e+00
 4.600000e+01 4.000000e+00 0.000000e+00
 4.800000e+01 4.000000e+00 0.000000e+00
 5.000000e+01 4.000000e+00 0.000000e+00
 5.200000e+01 4.000000e+00 0.000000e+00
 5.400000e+01 4.000000e+00 0.000000e+00
 5.600000e+01 4.000000e+00 0.000000e+00
 5.800000e+01 4.000000e+00 0.000000e+00
 6.000000e+01 4.000000e+00 0.000000e+00
 6.200000e+01 4.000000e+00 0.000000e+00
 6.400000e+01 4.000000e+00 0.000000e+00
 6.600000e+01 4.000000e+00 0.000000e+00
 6.800000e+01 4.000000e+00 0.000000e+00
 7.000000e+01 4.000000e+00 0.000000e+00
 7.200000e+01 4.000000e+00 0.000000e+00
 7.400000e+01 4.000000e+00 0.000000e+00
 7.600000e+01 4.000000e+00 0.000000e+00
 7.800000e+01 4.000000e+00 0.000000e+00
 8.000000e+01 4.000000e+00 0.000000e+00
 8.200000e+01 4.000000e+00 0.000000e+00
 8.400000e+01 4.000000e+00 0.000000e+00
 8.600000e+01 4.000000e+00 0.000000e+00
 8.800000e+01 4.000000e+00 0.000000e+00
 9.000000e+01 4.000000e+00 0.000000e+00
 9.200000e+01 4.000000e+00 0.000000e+00
 9.400000e+01 4.000000e+00 0.000000e+00
 9.600000e+01 4.000000e+00 0.000000e+00
 9.800000e+01 4.000000e+00 0.000000e+00
 1.000000e+02 4.000000e+00 0.000000e+00
 0.000000e+00 6.000000e+00 0.000000e+00
 2.000000e+00 6.000000e+00 0.000000e+00
 4.000000e+00 6.000000e+00 0.000000e+00
 6.000000e+00 6.000000e+00 0.000000e+00
 8.000000e+00 6.000000e+00 0.000000e+00
 1.000000e+01 6.000000e+00 0.000000e+00
 1.200000e+01 6.000000e+00 0.000000e+00
 1.400000e+01 6.000000e+00 0.000000e+00
 1.600000e+01 6.000000e+00 0.000000e+00
 1.800000e+01 6.000000e+00 0.000000e+00
 2.000000e+01 6.000000e+00 0.000000e+00
 2.200000e+01 6.000000e+00 0.000000e+00
 2.400000e+01 6.000000e+00 0.000000e+00
 2.600000e+01 6.000000e+00 0.000000e+00
 2.800000e+01 6.000000e+00 0.000000e+00
 3.000000e+01 6.000000e+00 0.000000e+00
 3.200000e+01 6.000000e+00 0.000000e+00
 3.400000e+01 6.000000e+00 0.000000e+00
 3.600000e+01 6.000000e+00 0.000000e+00
 3.800000e+01 6.000000e+00 0.000000e+00
 4.000000e+01 6.000000e+00 0.000000e+00
 4.200000e+01 6.000000e+00 0.000000e+00
 4.400000e+01 6.000000e+00 0.000000e+00
 4.600000e+01 6.000000e+00 0.000000e+00
 4.800000e+01 6.000000e+00 0.000000e+00
 5.000000e+01 6.000000e+00 0.000000e+00
 5.200000e+01 6.000000e+00 0.000000e+00
 5.400000e+01 6.000000e+00 0.000000e+00
 5.600000e+01 6.000000e+00 0.000000e+00
 5.800000e+01 6.000000e+00 0.000000e+00
 6.000000e+01 6.000000e+00 0.000000e+00
 6.200000e+01 6.000000e+00 0.000000e+00
 6.400000e+01 6.000000e+00 0.000000e+00
 6.600000e+01 6.000000e+00 0.000000e+00
 6.800000e+01 6.000000e+00 0.000000e+00
 7.000000e+01 6.000000e+00 0.000000e+00
 7.200000e+01 6.000000e+00 0.000000e+00
 7.400000e+01 6.000000e+00 0.000000e+00
 7.600000e+01 6.000000e+00 0.000000e+00
 7.800000e+01 6.000000e+00 0.000000e+00
 8.000000e+01 6.000000e+00 0.000000e+00
 8.200000e+01 6.000000e+00 0.000000e+00
 8.400000e+01 6.000000e+00 0.000000e+00
 8.600000e+01 6.000000e+00 0.000000e+00
 8.800000e+01 6.000000e+00 0.000000e+00
 9.000000e+01 6.000000e+00 0.000000e+00
 9.200000e+01 6.000000e+00 0.000000e+00
 9.400000e+01 6.000000e+00 0.000000e+00
 9.600000e+01 6.000000e+00 0.000000e+00
 9.800000e+01 6.000000e+00 0.000000e+00
 1.000000e+02 6.000000e+00 0.000000e+00
 0.000000e+00 8.000000e+00 0.000000e+00
 2.000000e+00 8.000000e+00 0.000000e+00
 4.000000e+00 8.000000e+00 0.000000e+00
 6.000000e+00 8.000000e+00 0.000000e+00
 8.000000e+00 8.000000e+00 0.000000e+00
 1.000000e+01 8.000000e+00 0.000000e+00
 1.200000e+01 8.000000e+00 0.000000e+00
 1.400000e+01 8.000000e+00 0.000000e+00
 1.600000e+01 8.000000e+00 0.000000e+00
 1.800000e+01 8.000000e+00 0.000000e+00
 2.000000e+01 8.000000e+00 0.000000e+00
 2.200000e+01 8.000000e+00 0.000000e+00
 2.400000e+01 8.000000e+00 0.000000e+00
 2.600000e+01 8.000000e+00 0.000000e+00
 2.800000e+01 8.000000e+00 0.000000e+00
 3.000000e+01 8.000000e+00 0.000000e+00
 3.200000e+01 8.000000e+00 0.000000e+00
 3.400000e+01 8.000000e+00 0.000000e+00
 3.600000e+01 8.000000e+00 0.000000e+00
 3.800000e+01 8.000000e+00 0.000000e+00
 4.000000e+01 8.000000e+00 0.000000e+00
 4.200000e+01 8.000000e+00 0.000000e+00
 4.400000e+01 8.000000e+00 0.000000e+00
 4.600000e+01 8.000000e+00 0.000000e+00
 4.800000e+01 8.000000e+00 0.000000e+00
 5.000000e+01 8.000000e+00 0.000000e+00
 5.200000e+01 8.000000e+00 0.000000e+00
 5.400000e+01 8.000000e+00 0.000000e+00
 5.600000e+01 8.000000e+00 0.000000e+00
 5.800000e+01 8.000000e+00 0.000000e+00
 6.000000e+01 8.000000e+00 0.000000e+00
 6.200000e+01 8.000000e+00 0.000000e+00
 6.400000e+01 8.000000e+00 0.000000e+00
 6.600000e+01 8.000000e+00 0.000000e+00
 6.800000e+01 8.000000e+00 0.000000e+00
 7.000000e+01 8.000000e+00 0.000000e+00
 7.200000e+01 8.000000e+00 0.000000e+00
 7.400000e+01 8.000000e+00 0.000000e+00
 7.600000e+01 8.000000e+00 0.000000e+00
 7.800000e+01 8.000000e+00 0.000000e+00
[...]
<PointData Scalars="talus">
<DataArray Name="talus" type="Float64" NumberOfComponents="1" format="ascii">
 -2.975003e+01
 -2.933062e+01
 -2.825914e+01
 -2.683002e+01
 -2.521081e+01
 -2.349545e+01
 -2.173854e+01
 -1.997466e+01
 -1.822935e+01
 -1.652565e+01
 -1.488805e+01
 -1.334452e+01
 -1.192668e+01
 -1.066751e+01
 -9.596581e+00
 -8.731128e+00
 -8.102920e+00
 -7.666546e+00
 -7.381016e+00
 -7.204217e+00
 -7.099645e+00
 -7.039992e+00
 -7.006796e+00
 -6.988608e+00
 -6.978710e+00
 -6.973333e+00
 -6.970411e+00
 -6.968821e+00
 -6.967955e+00
 -6.967484e+00
 -6.967227e+00
 -6.967087e+00
 -6.967010e+00
 -6.966969e+00
 -6.966946e+00
 -6.966934e+00
 -6.966927e+00
 -6.966924e+00
 -6.966922e+00
 -6.966921e+00
 -6.966921e+00
 -6.966920e+00
 -6.966920e+00
 -6.966920e+00
 -6.966920e+00
 -6.966920e+00
 -6.966920e+00
 -6.966921e+00
 -6.966921e+00
 -6.966921e+00
 -6.966921e+00
 -2.972360e+01
 -2.930564e+01
 -2.823658e+01
 -2.680880e+01
 -2.518931e+01
 -2.347164e+01
 -2.170985e+01
 -1.993765e+01
 -1.817931e+01
 -1.645601e+01
 -1.478971e+01
 -1.320524e+01
 -1.173115e+01
 -1.039878e+01
 -9.240560e+00
 -8.280939e+00
 -7.620920e+00
 -7.173413e+00
 -6.889640e+00
 -6.720248e+00
 -6.623568e+00
 -6.569954e+00
 -6.540706e+00
 -6.524868e+00
 -6.516298e+00
 -6.511650e+00
 -6.509124e+00
 -6.507751e+00
 -6.507003e+00
 -6.506595e+00
 -6.506373e+00
 -6.506253e+00
 -6.506187e+00
 -6.506151e+00
 -6.506131e+00
 -6.506121e+00
 -6.506115e+00
 -6.506112e+00
 -6.506111e+00
 -6.506110e+00
 -6.506109e+00
 -6.506109e+00
 -6.506109e+00
 -6.506109e+00
 -6.506109e+00
 -6.506109e+00
 -6.506109e+00
 -6.506109e+00
 -6.506110e+00
 -6.506110e+00
 -6.506110e+00
 -2.960224e+01
 -2.918822e+01
 -2.812429e+01
 -2.669610e+01
 -2.506998e+01
 -2.333887e+01
 -2.155564e+01
 -1.975199e+01
 -1.794923e+01
 -1.616444e+01
 -1.441432e+01
 -1.271772e+01
 -1.109823e+01
 -9.587091e+00
 -8.228685e+00
 -7.076787e+00
 -6.348083e+00
 -5.890112e+00
 -5.625423e+00
 -5.483450e+00
 -5.410573e+00
 -5.373113e+00
 -5.353699e+00
 -5.343491e+00
 -5.337999e+00
 -5.335019e+00
 -5.333399e+00
 -5.332517e+00
 -5.332038e+00
 -5.331776e+00
 -5.331634e+00
 -5.331557e+00
 -5.331514e+00
 -5.331492e+00
 -5.331479e+00
 -5.331473e+00
 -5.331469e+00
 -5.331467e+00
 -5.331466e+00
 -5.331466e+00
 -5.331465e+00
 -5.331465e+00
 -5.331465e+00
 -5.331465e+00
 -5.331465e+00
 -5.331465e+00
 -5.331465e+00
 -5.331465e+00
 -5.331466e+00
 -5.331467e+00
 -5.331468e+00
 -2.934613e+01
 -2.893960e+01
 -2.788571e+01
 -2.645725e+01
 -2.481960e+01
 -2.306536e+01
 -2.124617e+01
 -1.939158e+01
 -1.751963e+01
 -1.564303e+01
 -1.377303e+01
 -1.192245e+01
 -1.010958e+01
 -8.365407e+00
 -6.749926e+00
 -5.365199e+00
 -4.561798e+00
 -4.135086e+00
 -3.926582e+00
 -3.837760e+00
 -3.802942e+00
 -3.786079e+00
 -3.778396e+00
 -3.774383e+00
 -3.772090e+00
 -3.770830e+00
 -3.770143e+00
 -3.769770e+00
 -3.769567e+00
 -3.769457e+00
 -3.769397e+00
 -3.769364e+00
 -3.769346e+00
 -3.769337e+00
 -3.769332e+00
 -3.769329e+00
 -3.769328e+00
 -3.769327e+00
 -3.769327e+00
 -3.769327e+00
 -3.769327e+00
 -3.769327e+00
 -3.769327e+00
 -3.769327e+00
 -3.769327e+00
 -3.769326e+00
 -3.769326e+00
 -3.769327e+00
 -3.769327e+00
 -3.769328e+00
 -3.769331e+00
 -2.896784e+01
 -2.857151e+01
 -2.753290e+01
 -2.610799e+01
 -2.446015e+01
 -2.268182e+01
 -2.082394e+01
 -1.891455e+01
 -1.696918e+01
 -1.499687e+01
 -1.300376e+01
 -1.099546e+01
 -8.980091e+00
 -6.973861e+00
 -5.020774e+00
 -3.280367e+00
 -2.394271e+00
 -2.114114e+00
 -1.995090e+00
 -1.985674e+00
 -1.999442e+00
 -1.995161e+00
 -1.999503e+00
 -1.999457e+00
 -1.999382e+00
 -1.999389e+00
 -1.999376e+00
 -1.999379e+00
 -1.999378e+00
 -1.999378e+00
 -1.999378e+00
 -1.999378e+00
 -1.999379e+00
 -1.999379e+00
 -1.999379e+00
 -1.999379e+00
 -1.999380e+00
 -1.999380e+00
 -1.999380e+00
 -1.999380e+00
 -1.999380e+00
 -1.999380e+00
 -1.999380e+00
 -1.999380e+00
 -1.999380e+00
 -1.999380e+00
 -1.999380e+00
 -1.999380e+00
 -1.999380e+00
 -1.999379e+00
 -1.999394e+00
 -2.848262e+01
 -2.809886e+01
 -2.708189e+01
 -2.566851e+01
 -2.401836e+01
 -2.222361e+01
 -2.033522e+01
 -1.838065e+01
 -1.637406e+01
 -1.432204e+01
 -1.222643e+01
 -1.008551e+01
 -7.892863e+00
 -5.635065e+00
 -3.300583e+00
 -8.184690e-01
 2.181462e-01
 -5.949232e-02
 1.505183e-02
 -4.363132e-03
 8.829516e-04
 -3.267480e-04
 -1.316480e-05
 -2.306855e-05
 -2.715468e-05
 -5.807102e-06
 -9.454723e-06
 -2.403972e-06
 -2.919567e-06
 -2.005731e-06
 -1.286720e-06
 -5.874935e-07
 -1.944108e-07
 -5.228100e-07
 -3.594507e-07
 -3.592672e-07
 -3.842671e-07
 -3.675372e-07
 -4.044718e-07
 -4.302009e-07
 -4.719994e-07
 -5.090393e-07
 -5.772005e-07
 -6.355597e-07
 -7.871818e-07
 -8.578217e-07
 -1.085072e-06
 -1.337719e-06
 -1.326137e-06
 -3.999901e-06
 5.844369e-05
 -2.789908e+01
 -2.753098e+01
 -2.654440e+01
 -2.515472e+01
 -2.351584e+01
 -2.171946e+01
 -1.981708e+01
 -1.783671e+01
 -1.579253e+01
 -1.369041e+01
 -1.153022e+01
 -9.305794e+00
 -7.001655e+00
 -4.576080e+00
 -1.921224e+00
 1.359091e+00
 1.666816e+00
 1.956894e+00
 1.998945e+00
 1.997376e+00
 1.996142e+00
 1.999954e+00
 1.998988e+00
 1.983249e+00
 1.999924e+00
 1.993032e+00
 1.999856e+00
 1.997087e+00
 1.999958e+00
 1.997591e+00
 1.998859e+00
 1.998713e+00
 1.999355e+00
 1.999695e+00
 1.999674e+00
 1.999733e+00
 1.999798e+00
 1.999827e+00
 1.999891e+00
 1.999906e+00
 1.999937e+00
 1.999978e+00
 1.999987e+00
 1.999993e+00
 1.999992e+00
 1.999996e+00
 1.999998e+00
 1.999995e+00
 2.000000e+00
 1.999951e+00
 1.999781e+00
 -2.722154e+01
 -2.687300e+01
 -2.592774e+01
 -2.457726e+01
 -2.296751e+01
 -2.118910e+01
 -1.929454e+01
 -1.731332e+01
 -1.526111e+01
 -1.314503e+01
 -1.096633e+01
 -8.719728e+00
 -6.394039e+00
 -3.966311e+00
 -1.484710e+00
 1.727672e+00
 2.533247e+00
 3.075061e+00
 3.407062e+00
 3.605560e+00
 3.731952e+00
 3.816764e+00
 3.872129e+00
 3.908038e+00
 3.937115e+00
 3.956077e+00
 3.970142e+00
 3.979197e+00
 3.985647e+00
 3.989545e+00
 3.992564e+00
 3.994726e+00
 3.996370e+00
 3.997535e+00
 3.998274e+00
 3.998777e+00
 3.999134e+00
 3.999387e+00
 3.999573e+00
 3.999702e+00
 3.999799e+00
 3.999872e+00
 3.999920e+00
 3.999948e+00
 3.999965e+00
 3.999974e+00
 3.999978e+00
 3.999974e+00
 3.999960e+00
 3.999921e+00
 3.999906e+00
 -2.644954e+01
 -2.612471e+01
 -2.523271e+01
 -2.393878e+01
 -2.237836e+01
 -2.064000e+01
 -1.877730e+01
 -1.682189e+01
 -1.479201e+01
 -1.269788e+01
 -1.054451e+01
 -8.332766e+00
 -6.059576e+00
 -3.706127e+00
 -1.200148e+00
 1.936746e+00
 2.987700e+00
 3.856840e+00
 4.514050e+00
 4.975291e+00
 5.294589e+00
 5.513532e+00
 5.663749e+00
 5.766695e+00
 5.838652e+00
 5.888551e+00
 5.923185e+00
 5.946988e+00
 5.963329e+00
 5.974468e+00
 5.982192e+00
 5.987599e+00
 5.991407e+00
 5.994066e+00
 5.995894e+00
 5.997150e+00
 5.998021e+00
 5.998628e+00
 5.999054e+00
 5.999353e+00
 5.999565e+00
 5.999714e+00
 5.999816e+00
 5.999882e+00
 5.999923e+00
 5.999945e+00
 5.999952e+00
 5.999947e+00
 5.999931e+00
 5.999912e+00
 5.999814e+00
 -2.557908e+01
 -2.528155e+01
 -2.445397e+01
 -2.323378e+01
 -2.174314e+01
 -2.006712e+01
 -1.826002e+01
 -1.635573e+01
 -1.437560e+01
 -1.233348e+01
 -1.023990e+01
 -8.102277e+00
 -5.934646e+00
 -3.752634e+00
 -1.712820e+00
 1.620344e+00
 3.006678e+00
 4.255925e+00
 5.269088e+00
 6.058999e+00
 6.635992e+00
 7.050366e+00
 7.340527e+00
 7.543324e+00
 7.684036e+00
 7.781797e+00
 7.849388e+00
 7.896086e+00
 7.928232e+00
 7.950365e+00
 7.965625e+00
 7.976194e+00
 7.983527e+00
 7.988616e+00
 7.992135e+00
 7.994568e+00
 7.996251e+00
 7.997419e+00
 7.998232e+00
 7.998799e+00
 7.999194e+00
 7.999468e+00
 7.999655e+00
 7.999778e+00
 7.999854e+00
 7.999894e+00
 7.999908e+00
 7.999902e+00
 7.999886e+00
 7.999855e+00
 8.000161e+00
 -2.460465e+01
 -2.433670e+01
 -2.358188e+01
 -2.245006e+01
 -2.104764e+01
 -1.945439e+01
 -1.772430e+01
 -1.589311e+01
 -1.398494e+01
 -1.201693e+01
 -1.000380e+01
 -7.957382e+00
 -5.901090e+00
 -3.827285e+00
 -1.793364e+00
 1.158824e+00
 2.979526e+00
 4.440895e+00
 5.784359e+00
 6.877441e+00
 7.750659e+00
 8.402733e+00
 8.878700e+00
 9.218075e+00
 9.456599e+00
 9.623731e+00
 9.739609e+00
 9.820160e+00
 9.875702e+00
 9.914151e+00
 9.940642e+00
 9.958984e+00
 9.971652e+00
 9.980430e+00
 9.986497e+00
 9.990698e+00
 9.993603e+00
 9.995619e+00
 9.997017e+00
 9.997988e+00
 9.998662e+00
 9.999128e+00
 9.999446e+00
 9.999655e+00
 9.999787e+00
 9.999858e+00
 9.999888e+00
 9.999892e+00
 9.999857e+00
 1.000002e+01
 9.998982e+00
 -2.352200e+01
 -2.328404e+01
 -2.260585e+01
 -2.157208e+01
 -2.027198e+01
 -1.877801e+01
 -1.714247e+01
 -1.540193e+01
 -1.358234e+01
 -1.170296e+01
 -9.780409e+00
 -7.827918e+00
 -5.868027e+00
 -3.899733e+00
 -2.058381e+00
 5.849900e-01
 2.623584e+00
 4.502660e+00
 6.105025e+00
 7.498978e+00
 8.651357e+00
 9.568965e+00
 1.026250e+01
 1.077504e+01
 1.114161e+01
 1.140259e+01
 1.158495e+01
 1.171267e+01
 1.180111e+01
 1.186259e+01
 1.190503e+01
 1.193446e+01
 1.195477e+01
 1.196884e+01
 1.197856e+01
 1.198529e+01
 1.198995e+01
 1.199317e+01
 1.199541e+01
 1.199697e+01
 1.199805e+01
 1.199880e+01
 1.199932e+01
 1.199966e+01
 1.199990e+01
 1.200002e+01
 1.200009e+01
 1.200004e+01
 1.199992e+01
 1.199928e+01
 1.199718e+01
 -2.233043e+01
 -2.212097e+01
 -2.151813e+01
 -2.058546e+01
 -1.939538e+01
 -1.801146e+01
 -1.648273e+01
 -1.484533e+01
 -1.312586e+01
 -1.134452e+01
 -9.517619e+00
 -7.658407e+00
 -5.777900e+00
 -3.878881e+00
 -1.938611e+00
 2.014599e-01
 2.321127e+00
 4.387494e+00
 6.272814e+00
 7.929629e+00
 9.357259e+00
 1.053787e+01
 1.147618e+01
 1.219069e+01
 1.271933e+01
 1.310069e+01
 1.337229e+01
 1.356338e+01
 1.369718e+01
 1.379030e+01
 1.385502e+01
 1.389987e+01
 1.393096e+01
 1.395247e+01
 1.396736e+01
 1.397767e+01
 1.398481e+01
 1.398976e+01
 1.399319e+01
 1.399558e+01
 1.399724e+01
 1.399840e+01
 1.399920e+01
 1.399974e+01
 1.400009e+01
 1.400029e+01
 1.400033e+01
 1.400020e+01
 1.399974e+01
 1.399863e+01
 1.399622e+01
 -2.103406e+01
 -2.085013e+01
 -2.031679e+01
 -1.948142e+01
 -1.840153e+01
 -1.713131e+01
 -1.571524e+01
 -1.418781e+01
 -1.257524e+01
 -1.089785e+01
 -9.171407e+00
 -7.407958e+00
 -5.613794e+00
 -3.789664e+00
 -1.921361e+00
 -6.833523e-02
 2.181361e+00
 4.382849e+00
 6.428136e+00
 8.289274e+00
 9.937732e+00
 1.135650e+01
 1.253043e+01
 1.346326e+01
 1.417628e+01
 1.470513e+01
 1.508849e+01
 1.536224e+01
 1.555561e+01
 1.569129e+01
 1.578602e+01
 1.585198e+01
 1.589780e+01
 1.592959e+01
 1.595164e+01
 1.596693e+01
 1.597753e+01
 1.598489e+01
 1.599000e+01
 1.599356e+01
 1.599603e+01
 1.599776e+01
 1.599895e+01
 1.599976e+01
 1.600026e+01
 1.600052e+01
 1.600055e+01
 1.600028e+01
 1.599961e+01
 1.599826e+01
 1.599600e+01
 -1.964171e+01
 -1.947955e+01
 -1.900682e+01
 -1.825941e+01
 -1.728286e+01
 -1.612266e+01
 -1.481816e+01
 -1.340128e+01
 -1.189723e+01
 -1.032599e+01
 -8.703170e+00
 -7.042008e+00
 -5.347895e+00
 -3.627888e+00
 -1.817132e+00
 -7.464251e-02
 2.262398e+00
 4.531442e+00
 6.674704e+00
 8.664174e+00
 1.047551e+01
 1.208307e+01
 1.346440e+01
 1.460628e+01
 1.551326e+01
 1.620770e+01
 1.672399e+01
 1.709949e+01
 1.736844e+01
 1.755904e+01
 1.769315e+01
 1.778705e+01
 1.785258e+01
 1.789821e+01
 1.792995e+01
 1.795201e+01
 1.796735e+01
 1.797801e+01
 1.798543e+01
 1.799060e+01
 1.799420e+01
 1.799671e+01
 1.799843e+01
 1.799959e+01
 1.800032e+01
 1.800068e+01
 1.800070e+01
 1.800036e+01
 1.799957e+01
 1.799820e+01
 1.799608e+01
 -1.816569e+01
 -1.802132e+01
 -1.759909e+01
 -1.692710e+01
 -1.604207e+01
 -1.498219e+01
 -1.378186e+01
 -1.247005e+01
 -1.107040e+01
 -9.602232e+00
 -8.082105e+00
 -6.521505e+00
 -4.940622e+00
 -3.349873e+00
 -1.876346e+00
 3.108681e-01
 2.630634e+00
 4.884000e+00
 7.061018e+00
 9.118331e+00
 1.103413e+01
 1.277912e+01
 1.432582e+01
 1.565096e+01
 1.674354e+01
 1.761008e+01
 1.827379e+01
 1.876804e+01
 1.912842e+01
 1.938727e+01
 1.957125e+01
 1.970108e+01
 1.979224e+01
 1.985604e+01
 1.990059e+01
 1.993167e+01
 1.995334e+01
 1.996844e+01
 1.997897e+01
 1.998633e+01
 1.999146e+01
 1.999503e+01
 1.999749e+01
 1.999914e+01
 2.000018e+01
 2.000071e+01
 2.000080e+01
 2.000046e+01
 1.999968e+01
 1.999838e+01
 1.999651e+01
 -1.662006e+01
 -1.648981e+01
 -1.610817e+01
 -1.549824e+01
 -1.469057e+01
 -1.371774e+01
 -1.260981e+01
 -1.139287e+01
 -1.008881e+01
 -8.715525e+00
 -7.288957e+00
 -5.823369e+00
 -4.327731e+00
 -2.766523e+00
 -1.281125e+00
 1.043473e+00
 3.249693e+00
 5.442913e+00
 7.604105e+00
 9.683193e+00
 1.165585e+01
 1.349158e+01
 1.516068e+01
 1.663437e+01
 1.789121e+01
 1.892325e+01
 1.973967e+01
 2.036453e+01
 2.083024e+01
 2.117044e+01
 2.141541e+01
 2.159000e+01
 2.171357e+01
 2.180059e+01
 2.186169e+01
 2.190449e+01
 2.193445e+01
 2.195540e+01
 2.197006e+01
 2.198032e+01
 2.198749e+01
 2.199249e+01
 2.199594e+01
 2.199827e+01
 2.199975e+01
 2.200056e+01
 2.200082e+01
 2.200059e+01
 2.199991e+01
 2.199877e+01
 2.199718e+01
 -1.501914e+01
 -1.489981e+01
 -1.454993e+01
 -1.398946e+01
 -1.324497e+01
 -1.234495e+01
 -1.131616e+01
 -1.018162e+01
 -8.960739e+00
 -7.671088e+00
 -6.327576e+00
 -4.940076e+00
 -3.542321e+00
 -2.191315e+00
 -2.388419e-01
 1.908206e+00
 4.043991e+00
 6.180448e+00
 8.298187e+00
 1.036917e+01
 1.236324e+01
 1.425209e+01
 1.600518e+01
 1.759187e+01
 1.898480e+01
 2.016558e+01
 2.113010e+01
 2.189040e+01
 2.247141e+01
 2.290450e+01
 2.322131e+01
 2.344993e+01
 2.361330e+01
 2.372927e+01
 2.381121e+01
 2.386892e+01
 2.390950e+01
 2.393800e+01
 2.395802e+01
 2.397206e+01
 2.398192e+01
 2.398881e+01
 2.399359e+01
 2.399683e+01
 2.399895e+01
 2.400019e+01
 2.400074e+01
 2.400072e+01
 2.400023e+01
 2.399933e+01
 2.399806e+01
 -1.337614e+01
 -1.326509e+01
 -1.293950e+01
 -1.241777e+01
 -1.172376e+01
 -1.088335e+01
 -9.920066e+00
 -8.855460e+00
 -7.707542e+00
 -6.489886e+00
 -5.209581e+00
 -3.900760e+00
 -2.478817e+00
 -1.145234e+00
 9.602583e-01
 2.943173e+00
 4.988725e+00
 7.062316e+00
 9.130351e+00
 1.117379e+01
 1.316557e+01
 1.507893e+01
 1.688468e+01
 1.855227e+01
 2.005194e+01
 2.135895e+01
 2.245893e+01
 2.335197e+01
 2.405295e+01
 2.458749e+01
 2.498581e+01
 2.527749e+01
 2.548838e+01
 2.563948e+01
 2.574706e+01
 2.582332e+01
 2.587723e+01
 2.591528e+01
 2.594211e+01
 2.596101e+01
 2.597432e+01
 2.598367e+01
 2.599019e+01
 2.599466e+01
 2.599764e+01
 2.599949e+01
 2.600048e+01
 2.600081e+01
 2.600061e+01
 2.600001e+01
 2.599908e+01
 -1.170324e+01
 -1.159819e+01
 -1.129072e+01
 -1.079809e+01
 -1.014373e+01
 -9.351384e+00
 -8.444063e+00
 -7.438333e+00
 -6.348351e+00
 -5.191303e+00
 -3.990787e+00
 -2.694249e+00
 -1.514581e+00
 2.894194e-01
 2.181940e+00
 4.100825e+00
 6.069253e+00
 8.070832e+00
 1.008513e+01
 1.209020e+01
 1.406379e+01
 1.598110e+01
 1.781515e+01
 1.953677e+01
 2.111602e+01
 2.252512e+01
 2.374289e+01
 2.475954e+01
 2.557943e+01
 2.622003e+01
 2.670731e+01
 2.707019e+01
 2.733615e+01
 2.752880e+01
 2.766718e+01
 2.776601e+01
 2.783631e+01
 2.788619e+01
 2.792154e+01
 2.794656e+01
 2.796424e+01
 2.797673e+01
 2.798549e+01
 2.799157e+01
 2.799570e+01
 2.799838e+01
 2.799999e+01
 2.800079e+01
 2.800099e+01
 2.800075e+01
 2.800017e+01
 -1.000939e+01
 -9.908669e+00
 -9.614004e+00
 -9.144348e+00
 -8.520935e+00
 -7.767844e+00
 -6.902382e+00
 -5.946932e+00
 -4.918704e+00
 -3.816964e+00
 -2.624349e+00
 -1.482701e+00
 3.212116e-02
 1.742988e+00
 3.513014e+00
 5.360961e+00
 7.257338e+00
 9.191829e+00
 1.114873e+01
 1.310968e+01
 1.505465e+01
 1.696148e+01
 1.880551e+01
 2.055965e+01
 2.219508e+01
 2.368324e+01
 2.499914e+01
 2.612585e+01
 2.705843e+01
 2.780530e+01
 2.838606e+01
 2.882668e+01
 2.915459e+01
 2.939510e+01
 2.956963e+01
 2.969532e+01
 2.978537e+01
 2.984967e+01
 2.989546e+01
 2.992804e+01
 2.995118e+01
 2.996760e+01
 2.997920e+01
 2.998733e+01
 2.999295e+01
 2.999673e+01
 2.999916e+01
 3.000059e+01
 3.000130e+01
 3.000148e+01
 3.000127e+01
 -8.306633e+00
 -8.207838e+00
 -7.921196e+00
 -7.463559e+00
 -6.862913e+00
 -6.140345e+00
 -5.322922e+00
 -4.410684e+00
 -3.403293e+00
 -2.336447e+00
 -1.333423e+00
 9.654185e-02
 1.642418e+00
 3.245952e+00
 4.945503e+00
 6.713838e+00
 8.539828e+00
 1.040971e+01
 1.230934e+01
 1.422296e+01
 1.613287e+01
 1.801923e+01
 1.985979e+01
 2.162975e+01
 2.330209e+01
 2.484882e+01
 2.624341e+01
 2.746441e+01
 2.849959e+01
 2.934885e+01
 3.002426e+01
 3.054697e+01
 3.094256e+01
 3.123677e+01
 3.145272e+01
 3.160973e+01
 3.172312e+01
 3.180462e+01
 3.186302e+01
 3.190478e+01
 3.193461e+01
 3.195588e+01
 3.197101e+01
 3.198172e+01
 3.198923e+01
 3.199440e+01
 3.199788e+01
 3.200012e+01
 3.200144e+01
 3.200211e+01
 3.200229e+01
 -6.593322e+00
 -6.495705e+00
 -6.211725e+00
 -5.771754e+00
 -5.188438e+00
 -4.493697e+00
 -3.684107e+00
 -2.802127e+00
 -1.936767e+00
 -8.346183e-01
 3.900595e-01
 1.790811e+00
 3.261407e+00
 4.814885e+00
 6.444650e+00
 8.144907e+00
 9.904709e+00
 1.171263e+01
 1.355613e+01
 1.542124e+01
 1.729224e+01
 1.915145e+01
 2.097884e+01
 2.275189e+01
 2.444568e+01
 2.603360e+01
 2.748901e+01
 2.878807e+01
 2.991345e+01
 3.085789e+01
 3.162588e+01
 3.223252e+01
 3.269991e+01
 3.305283e+01
 3.331516e+01
 3.350790e+01
 3.364832e+01
 3.375001e+01
 3.382335e+01
 3.387610e+01
 3.391399e+01
 3.394115e+01
 3.396060e+01
 3.397448e+01
 3.398433e+01
 3.399125e+01
 3.399603e+01
 3.399926e+01
 3.400134e+01
 3.400256e+01
 3.400313e+01
 -4.903507e+00
 -4.798556e+00
 -4.510390e+00
 -4.052556e+00
 -3.473335e+00
 -2.787403e+00
 -2.098224e+00
 -1.192869e+00
 -1.701831e-01
 9.697351e-01
 2.205946e+00
 3.527723e+00
 4.940982e+00
 6.434965e+00
 8.004152e+00
 9.642248e+00
 1.134093e+01
 1.309041e+01
 1.487966e+01
 1.669631e+01
 1.852641e+01
 2.035411e+01
 2.216146e+01
 2.392808e+01
 2.563119e+01
 2.724594e+01
 2.874650e+01
 3.010817e+01
 3.131045e+01
 3.234058e+01
 3.319627e+01
 3.388613e+01
 3.442757e+01
 3.484302e+01
 3.515610e+01
 3.538877e+01
 3.555991e+01
 3.568486e+01
 3.577562e+01
 3.584131e+01
 3.588876e+01
 3.592298e+01
 3.594763e+01
 3.596535e+01
 3.597805e+01
 3.598710e+01
 3.599348e+01
 3.599790e+01
 3.600087e+01
 3.600272e+01
 3.600370e+01
 -3.180739e+00
 -3.068322e+00
 -2.757756e+00
 -2.372538e+00
 -1.799876e+00
 -1.112180e+00
 -2.560146e-01
 6.965921e-01
 1.726712e+00
 2.838734e+00
 4.027005e+00
 5.303586e+00
 6.663628e+00
 8.102813e+00
 9.616185e+00
 1.119755e+01
 1.283975e+01
 1.453435e+01
 1.627168e+01
 1.804078e+01
 1.982919e+01
 2.162273e+01
 2.340527e+01
 2.515844e+01
 2.686149e+01
 2.849146e+01
 3.002386e+01
 3.143414e+01
 3.270014e+01
 3.380530e+01
 3.474169e+01
 3.551173e+01
 3.612748e+01
 3.660792e+01
 3.697525e+01
 3.725162e+01
 3.745703e+01
 3.760833e+01
 3.771906e+01
 3.779975e+01
 3.785838e+01
 3.790092e+01
 3.793173e+01
 3.795404e+01
 3.797016e+01
 3.798177e+01
 3.799007e+01
 3.799592e+01
 3.799992e+01
 3.800248e+01
 3.800387e+01
 -1.631349e+00
 -1.449099e+00
 -1.080636e+00
 -4.962174e-01
 1.306905e-01
 8.646278e-01
 1.721934e+00
 2.652708e+00
 3.647435e+00
 4.720838e+00
 5.875596e+00
 7.109400e+00
 8.422789e+00
 9.812753e+00
 1.127495e+01
 1.280416e+01
 1.439404e+01
 1.603720e+01
 1.772512e+01
 1.944803e+01
 2.119480e+01
 2.295272e+01
 2.470727e+01
 2.644187e+01
 2.813769e+01
 2.977365e+01
 3.132682e+01
 3.277346e+01
 3.409085e+01
 3.526002e+01
 3.626879e+01
 3.711407e+01
 3.780250e+01
 3.834885e+01
 3.877291e+01
 3.909615e+01
 3.933908e+01
 3.951972e+01
 3.965300e+01
 3.975081e+01
 3.982234e+01
 3.987453e+01
 3.991258e+01
 3.994028e+01
 3.996044e+01
 3.997508e+01
 3.998564e+01
 3.999316e+01
 3.999837e+01
 4.000173e+01
 4.000355e+01
 4.098747e-01
 6.186601e-01
 1.004330e+00
 1.578854e+00
 2.210165e+00
 2.930331e+00
 3.735566e+00
 4.624626e+00
 5.590749e+00
 6.631382e+00
 7.749191e+00
 8.944247e+00
 1.021538e+01
 1.156035e+01
 1.297565e+01
 1.445670e+01
 1.599796e+01
 1.759289e+01
 1.923389e+01
 2.091225e+01
 2.261797e+01
 2.433963e+01
 2.606415e+01
 2.777654e+01
 2.945972e+01
 3.109439e+01
 3.265928e+01
 3.413180e+01
 3.548944e+01
 3.671195e+01
 3.778412e+01
 3.869835e+01
 3.945620e+01
 4.006787e+01
 4.054999e+01
 4.092251e+01
 4.120578e+01
 4.141854e+01
 4.157688e+01
 4.169396e+01
 4.178015e+01
 4.184342e+01
 4.188981e+01
 4.192378e+01
 4.194865e+01
 4.196683e+01
 4.198003e+01
 4.198950e+01
 4.199609e+01
 4.200034e+01
 4.200260e+01
 2.781521e+00
 2.918627e+00
 3.249574e+00