<?xml version="1.0"?>
<VTKFile type="UnstructuredGrid" version="0.1">
<UnstructuredGrid>
<Piece NumberOfPoints="3830" NumberOfCells="7422">
<Points>
<DataArray NumberOfComponents="3" type="Float64" format="ascii">
 0.000000e+00 0.000000e+00 0.000000e+00
 1.000000e+00 0.000000e+00 0.000000e+00
 1.000000e+00 1.000000e+00 0.000000e+00
 0.000000e+00 1.000000e+00 0.000000e+00
 1.694915e-02 0.000000e+00 0.000000e+00
 3.389831e-02 0.000000e+00 0.000000e+00
 5.084746e-02 0.000000e+00 0.000000e+00
 6.779661e-02 0.000000e+00 0.000000e+00
 8.474576e-02 0.000000e+00 0.000000e+00
 1.016949e-01 0.000000e+00 0.000000e+00
 1.186441e-01 0.000000e+00 0.000000e+00
 1.355932e-01 0.000000e+00 0.000000e+00
 1.525424e-01 0.000000e+00 0.000000e+00
 1.694915e-01 0.000000e+00 0.000000e+00
 1.864407e-01 0.000000e+00 0.000000e+00
 2.033898e-01 0.000000e+00 0.000000e+00
 2.203390e-01 0.000000e+00 0.000000e+00
 2.372881e-01 0.000000e+00 0.000000e+00
 2.542373e-01 0.000000e+00 0.000000e+00
 2.711864e-01 0.000000e+00 0.000000e+00
 2.881356e-01 0.000000e+00 0.000000e+00
 3.050847e-01 0.000000e+00 0.000000e+00
 3.220339e-01 0.000000e+00 0.000000e+00
 3.389831e-01 0.000000e+00 0.000000e+00
 3.559322e-01 0.000000e+00 0.000000e+00
 3.728814e-01 0.000000e+00 0.000000e+00
 3.898305e-01 0.000000e+00 0.000000e+00
 4.067797e-01 0.000000e+00 0.000000e+00
 4.237288e-01 0.000000e+00 0.000000e+00
 4.406780e-01 0.000000e+00 0.000000e+00
 4.576271e-01 0.000000e+00 0.000000e+00
 4.745763e-01 0.000000e+00 0.000000e+00
 4.915254e-01 0.000000e+00 0.000000e+00
 5.084746e-01 0.000000e+00 0.000000e+00
 5.254237e-01 0.000000e+00 0.000000e+00
 5.423729e-01 0.000000e+00 0.000000e+00
 5.593220e-01 0.000000e+00 0.000000e+00
 5.762712e-01 0.000000e+00 0.000000e+00
 5.932203e-01 0.000000e+00 0.000000e+00
 6.101695e-01 0.000000e+00 0.000000e+00
 6.271186e-01 0.000000e+00 0.000000e+00
 6.440678e-01 0.000000e+00 0.000000e+00
 6.610169e-01 0.000000e+00 0.000000e+00
 6.779661e-01 0.000000e+00 0.000000e+00
 6.949153e-01 0.000000e+00 0.000000e+00
 7.118644e-01 0.000000e+00 0.000000e+00
 7.288136e-01 0.000000e+00 0.000000e+00
 7.457627e-01 0.000000e+00 0.000000e+00
 7.627119e-01 0.000000e+00 0.000000e+00
 7.796610e-01 0.000000e+00 0.000000e+00
 7.966102e-01 0.000000e+00 0.000000e+00
 8.135593e-01 0.000000e+00 0.000000e+00
 8.305085e-01 0.000000e+00 0.000000e+00
 8.474576e-01 0.000000e+00 0.000000e+00
 8.644068e-01 0.000000e+00 0.000000e+00
 8.813559e-01 0.000000e+00 0.000000e+00
 8.983051e-01 0.000000e+00 0.000000e+00
 9.152542e-01 0.000000e+00 0.000000e+00
 9.322034e-01 0.000000e+00 0.000000e+00
 9.491525e-01 0.000000e+00 0.000000e+00
 9.661017e-01 0.000000e+00 0.000000e+00
 9.830508e-01 0.000000e+00 0.000000e+00
 1.000000e+00 1.694915e-02 0.000000e+00
 1.000000e+00 3.389831e-02 0.000000e+00
 1.000000e+00 5.084746e-02 0.000000e+00
 1.000000e+00 6.779661e-02 0.000000e+00
 1.000000e+00 8.474576e-02 0.000000e+00
 1.000000e+00 1.016949e-01 0.000000e+00
 1.000000e+00 1.186441e-01 0.000000e+00
 1.000000e+00 1.355932e-01 0.000000e+00
 1.000000e+00 1.525424e-01 0.000000e+00
 1.000000e+00 1.694915e-01 0.000000e+00
 1.000000e+00 1.864407e-01 0.000000e+00
 1.000000e+00 2.033898e-01 0.000000e+00
 1.000000e+00 2.203390e-01 0.000000e+00
 1.000000e+00 2.372881e-01 0.000000e+00
 1.000000e+00 2.542373e-01 0.000000e+00
 1.000000e+00 2.711864e-01 0.000000e+00
 1.000000e+00 2.881356e-01 0.000000e+00
 1.000000e+00 3.050847e-01 0.000000e+00
 1.000000e+00 3.220339e-01 0.000000e+00
 1.000000e+00 3.389831e-01 0.000000e+00
 1.000000e+00 3.559322e-01 0.000000e+00
 1.000000e+00 3.728814e-01 0.000000e+00
 1.000000e+00 3.898305e-01 0.000000e+00
 1.000000e+00 4.067797e-01 0.000000e+00
 1.000000e+00 4.237288e-01 0.000000e+00
 1.000000e+00 4.406780e-01 0.000000e+00
 1.000000e+00 4.576271e-01 0.000000e+00
 1.000000e+00 4.745763e-01 0.000000e+00
 1.000000e+00 4.915254e-01 0.000000e+00
 1.000000e+00 5.084746e-01 0.000000e+00
 1.000000e+00 5.254237e-01 0.000000e+00
 1.000000e+00 5.423729e-01 0.000000e+00
 1.000000e+00 5.593220e-01 0.000000e+00
 1.000000e+00 5.762712e-01 0.000000e+00
 1.000000e+00 5.932203e-01 0.000000e+00
 1.000000e+00 6.101695e-01 0.000000e+00
 1.000000e+00 6.271186e-01 0.000000e+00
 1.000000e+00 6.440678e-01 0.000000e+00
 1.000000e+00 6.610169e-01 0.000000e+00
 1.000000e+00 6.779661e-01 0.000000e+00
 1.000000e+00 6.949153e-01 0.000000e+00
 1.000000e+00 7.118644e-01 0.000000e+00
 1.000000e+00 7.288136e-01 0.000000e+00
 1.000000e+00 7.457627e-01 0.000000e+00
 1.000000e+00 7.627119e-01 0.000000e+00
 1.000000e+00 7.796610e-01 0.000000e+00
 1.000000e+00 7.966102e-01 0.000000e+00
 1.000000e+00 8.135593e-01 0.000000e+00
 1.000000e+00 8.305085e-01 0.000000e+00
 1.000000e+00 8.474576e-01 0.000000e+00
 1.000000e+00 8.644068e-01 0.000000e+00
 1.000000e+00 8.813559e-01 0.000000e+00
 1.000000e+00 8.983051e-01 0.000000e+00
 1.000000e+00 9.152542e-01 0.000000e+00
 1.000000e+00 9.322034e-01 0.000000e+00
 1.000000e+00 9.491525e-01 0.000000e+00
 1.000000e+00 9.661017e-01 0.000000e+00
 1.000000e+00 9.830508e-01 0.000000e+00
 9.830508e-01 1.000000e+00 0.000000e+00
 9.661017e-01 1.000000e+00 0.000000e+00
 9.491525e-01 1.000000e+00 0.000000e+00
 9.322034e-01 1.000000e+00 0.000000e+00
 9.152542e-01 1.000000e+00 0.000000e+00
 8.983051e-01 1.000000e+00 0.000000e+00
 8.813559e-01 1.000000e+00 0.000000e+00
 8.644068e-01 1.000000e+00 0.000000e+00
 8.474576e-01 1.000000e+00 0.000000e+00
 8.305085e-01 1.000000e+00 0.000000e+00
 8.135593e-01 1.000000e+00 0.000000e+00
 7.966102e-01 1.000000e+00 0.000000e+00
 7.796610e-01 1.000000e+00 0.000000e+00
 7.627119e-01 1.000000e+00 0.000000e+00
 7.457627e-01 1.000000e+00 0.000000e+00
 7.288136e-01 1.000000e+00 0.000000e+00
 7.118644e-01 1.000000e+00 0.000000e+00
 6.949153e-01 1.000000e+00 0.000000e+00
 6.779661e-01 1.000000e+00 0.000000e+00
 6.610169e-01 1.000000e+00 0.000000e+00
 6.440678e-01 1.000000e+00 0.000000e+00
 6.271186e-01 1.000000e+00 0.000000e+00
 6.101695e-01 1.000000e+00 0.000000e+00
 5.932203e-01 1.000000e+00 0.000000e+00
 5.762712e-01 1.000000e+00 0.000000e+00
 5.593220e-01 1.000000e+00 0.000000e+00
 5.423729e-01 1.000000e+00 0.000000e+00
 5.254237e-01 1.000000e+00 0.000000e+00
 5.084746e-01 1.000000e+00 0.000000e+00
 4.915254e-01 1.000000e+00 0.000000e+00
 4.745763e-01 1.000000e+00 0.000000e+00
 4.576271e-01 1.000000e+00 0.000000e+00
 4.406780e-01 1.000000e+00 0.000000e+00
 4.237288e-01 1.000000e+00 0.000000e+00
 4.067797e-01 1.000000e+00 0.000000e+00
 3.898305e-01 1.000000e+00 0.000000e+00
 3.728814e-01 1.000000e+00 0.000000e+00
 3.559322e-01 1.000000e+00 0.000000e+00
 3.389831e-01 1.000000e+00 0.000000e+00
 3.220339e-01 1.000000e+00 0.000000e+00
 3.050847e-01 1.000000e+00 0.000000e+00
 2.881356e-01 1.000000e+00 0.000000e+00
 2.711864e-01 1.000000e+00 0.000000e+00
 2.542373e-01 1.000000e+00 0.000000e+00
 2.372881e-01 1.000000e+00 0.000000e+00
 2.203390e-01 1.000000e+00 0.000000e+00
 2.033898e-01 1.000000e+00 0.000000e+00
 1.864407e-01 1.000000e+00 0.000000e+00
 1.694915e-01 1.000000e+00 0.000000e+00
 1.525424e-01 1.000000e+00 0.000000e+00
 1.355932e-01 1.000000e+00 0.000000e+00
 1.186441e-01 1.000000e+00 0.000000e+00
 1.016949e-01 1.000000e+00 0.000000e+00
 8.474576e-02 1.000000e+00 0.000000e+00
 6.779661e-02 1.000000e+00 0.000000e+00
 5.084746e-02 1.000000e+00 0.000000e+00
 3.389831e-02 1.000000e+00 0.000000e+00
 1.694915e-02 1.000000e+00 0.000000e+00
 0.000000e+00 9.830508e-01 0.000000e+00
 0.000000e+00 9.661017e-01 0.000000e+00
 0.000000e+00 9.491525e-01 0.000000e+00
 0.000000e+00 9.322034e-01 0.000000e+00
 0.000000e+00 9.152542e-01 0.000000e+00
 0.000000e+00 8.983051e-01 0.000000e+00
 0.000000e+00 8.813559e-01 0.000000e+00
 0.000000e+00 8.644068e-01 0.000000e+00
 0.000000e+00 8.474576e-01 0.000000e+00
 0.000000e+00 8.305085e-01 0.000000e+00
 0.000000e+00 8.135593e-01 0.000000e+00
 0.000000e+00 7.966102e-01 0.000000e+00
 0.000000e+00 7.796610e-01 0.000000e+00
 0.000000e+00 7.627119e-01 0.000000e+00
 0.000000e+00 7.457627e-01 0.000000e+00
 0.000000e+00 7.288136e-01 0.000000e+00
 0.000000e+00 7.118644e-01 0.000000e+00
 0.000000e+00 6.949153e-01 0.000000e+00
 0.000000e+00 6.779661e-01 0.000000e+00
 0.000000e+00 6.610169e-01 0.000000e+00
 0.000000e+00 6.440678e-01 0.000000e+00
 0.000000e+00 6.271186e-01 0.000000e+00
 0.000000e+00 6.101695e-01 0.000000e+00
 0.000000e+00 5.932203e-01 0.000000e+00
 0.000000e+00 5.762712e-01 0.000000e+00
 0.000000e+00 5.593220e-01 0.000000e+00
 0.000000e+00 5.423729e-01 0.000000e+00
 0.000000e+00 5.254237e-01 0.000000e+00
 0.000000e+00 5.084746e-01 0.000000e+00
 0.000000e+00 4.915254e-01 0.000000e+00
 0.000000e+00 4.745763e-01 0.000000e+00
 0.000000e+00 4.576271e-01 0.000000e+00
 0.000000e+00 4.406780e-01 0.000000e+00
 0.000000e+00 4.237288e-01 0.000000e+00
 0.000000e+00 4.067797e-01 0.000000e+00
 0.000000e+00 3.898305e-01 0.000000e+00
 0.000000e+00 3.728814e-01 0.000000e+00
 0.000000e+00 3.559322e-01 0.000000e+00
 0.000000e+00 3.389831e-01 0.000000e+00
 0.000000e+00 3.220339e-01 0.000000e+00
 0.000000e+00 3.050847e-01 0.000000e+00
 0.000000e+00 2.881356e-01 0.000000e+00
 0.000000e+00 2.711864e-01 0.000000e+00
 0.000000e+00 2.542373e-01 0.000000e+00
 0.000000e+00 2.372881e-01 0.000000e+00
 0.000000e+00 2.203390e-01 0.000000e+00
 0.000000e+00 2.033898e-01 0.000000e+00
 0.000000e+00 1.864407e-01 0.000000e+00
 0.000000e+00 1.694915e-01 0.000000e+00
 0.000000e+00 1.525424e-01 0.000000e+00
 0.000000e+00 1.355932e-01 0.000000e+00
 0.000000e+00 1.186441e-01 0.000000e+00
 0.000000e+00 1.016949e-01 0.000000e+00
 0.000000e+00 8.474576e-02 0.000000e+00
 0.000000e+00 6.779661e-02 0.000000e+00
 0.000000e+00 5.084746e-02 0.000000e+00
 0.000000e+00 3.389831e-02 0.000000e+00
 0.000000e+00 1.694915e-02 0.000000e+00
 5.005028e-01 4.998391e-01 0.000000e+00
 7.071661e-01 2.918712e-01 0.000000e+00
 7.058461e-01 7.075282e-01 0.000000e+00
 2.933884e-01 7.073367e-01 0.000000e+00
 2.938885e-01 2.941144e-01 0.000000e+00
 4.999703e-01 7.791089e-01 0.000000e+00
 5.001569e-01 2.194803e-01 0.000000e+00
 2.181991e-01 4.983680e-01 0.000000e+00
[...]
<PointData Scalars="press" Vectors="vel">
<DataArray Name="press" type="Float64" NumberOfComponents="1" format="ascii">
 2.539183e+06
 2.445413e+06
 -2.449850e+06
 -2.720068e+06
 2.544991e+06
 2.533183e+06
 2.538669e+06
 2.527614e+06
 2.530725e+06
 2.529229e+06
 2.520044e+06
 2.516243e+06
 2.512470e+06
 2.509868e+06
 2.503879e+06
 2.499441e+06
 2.493750e+06
 2.489858e+06
 2.478093e+06
 2.480662e+06
 2.469111e+06
 2.459434e+06
 2.451180e+06
 2.434754e+06
 2.414723e+06
 2.396035e+06
 2.391527e+06
 2.413881e+06
 2.431203e+06
 2.442403e+06
 2.452395e+06
 2.463293e+06
 2.471668e+06
 2.480860e+06
 2.489271e+06
 2.501059e+06
 2.500369e+06
 2.510026e+06
 2.518436e+06
 2.517930e+06
 2.520928e+06
 2.520361e+06
 2.520518e+06
 2.517280e+06
 2.515249e+06
 2.514656e+06
 2.513948e+06
 2.512724e+06
 2.511167e+06
 2.502830e+06
 2.506931e+06
 2.505708e+06
 2.505634e+06
 2.501585e+06
 2.500551e+06
 2.499696e+06
 2.505070e+06
 2.504414e+06
 2.497942e+06
 2.498914e+06
 2.479104e+06
 2.462373e+06
 2.423464e+06
 2.365730e+06
 2.285407e+06
 2.199083e+06
 2.110267e+06
 2.020338e+06
 1.930275e+06
 1.841115e+06
 1.752534e+06
 1.665212e+06
 1.578409e+06
 1.492920e+06
 1.408162e+06
 1.323949e+06
 1.239567e+06
 1.155599e+06
 1.071276e+06
 9.870875e+05
 9.024715e+05
 8.176127e+05
 7.325827e+05
 6.470643e+05
 5.615846e+05
 4.754934e+05
 3.894827e+05
 3.029190e+05
 2.164726e+05
 1.295888e+05
 4.261206e+04
 -4.427126e+04
 -1.314951e+05
 -2.185402e+05
 -3.056683e+05
 -3.927572e+05
 -4.800168e+05
 -5.670682e+05
 -6.539283e+05
 -7.412859e+05
 -8.279901e+05
 -9.148873e+05
 -1.001451e+06
 -1.087871e+06
 -1.174146e+06
 -1.260213e+06
 -1.345879e+06
 -1.431438e+06
 -1.516575e+06
 -1.601253e+06
 -1.685533e+06
 -1.768640e+06
 -1.850734e+06
 -1.930931e+06
 -2.008915e+06
 -2.084569e+06
 -2.157679e+06
 -2.227437e+06
 -2.297166e+06
 -2.358632e+06
 -2.444559e+06
 -2.458972e+06
 -2.456075e+06
 -2.471289e+06
 -2.471753e+06
 -2.476145e+06
 -2.488710e+06
 -2.495262e+06
 -2.500515e+06
 -2.503616e+06
 -2.509094e+06
 -2.512872e+06
 -2.521338e+06
 -2.515768e+06
 -2.517954e+06
 -2.522312e+06
 -2.527477e+06
 -2.534403e+06
 -2.539039e+06
 -2.541743e+06
 -2.546510e+06
 -2.548688e+06
 -2.552906e+06
 -2.554839e+06
 -2.557744e+06
 -2.560062e+06
 -2.563551e+06
 -2.564394e+06
 -2.569687e+06
 -2.571752e+06
 -2.572247e+06
 -2.572639e+06
 -2.570642e+06
 -2.563967e+06
 -2.559957e+06
 -2.562080e+06
 -2.554526e+06
 -2.553075e+06
 -2.554055e+06
 -2.551663e+06
 -2.554702e+06
 -2.552486e+06
 -2.547278e+06
 -2.555674e+06
 -2.548709e+06
 -2.550218e+06
 -2.550346e+06
 -2.552253e+06
 -2.553274e+06
 -2.559219e+06
 -2.564563e+06
 -2.571879e+06
 -2.576108e+06
 -2.590919e+06
 -2.613838e+06
 -2.632022e+06
 -2.670245e+06
 -2.702094e+06
 -2.568570e+06
 -2.442743e+06
 -2.339255e+06
 -2.239841e+06
 -2.141707e+06
 -2.043375e+06
 -1.948338e+06
 -1.854763e+06
 -1.762861e+06
 -1.672678e+06
 -1.584938e+06
 -1.498069e+06
 -1.412404e+06
 -1.327937e+06
 -1.244502e+06
 -1.160437e+06
 -1.075915e+06
 -9.891720e+05
 -9.003187e+05
 -8.086661e+05
 -7.157467e+05
 -6.228409e+05
 -5.322754e+05
 -4.448388e+05
 -3.594859e+05
 -2.744592e+05
 -1.892293e+05
 -1.038622e+05
 -1.815615e+04
 6.774651e+04
 1.536675e+05
 2.396148e+05
 3.254024e+05
 4.108727e+05
 4.958733e+05
 5.805509e+05
 6.647641e+05
 7.484353e+05
 8.319482e+05
 9.151046e+05
 9.982134e+05
 1.081199e+06
 1.164215e+06
 1.247342e+06
 1.330588e+06
 1.413993e+06
 1.497662e+06
 1.581634e+06
 1.665951e+06
 1.750875e+06
 1.836463e+06
 1.923060e+06
 2.010994e+06
 2.100397e+06
 2.191509e+06
 2.284958e+06
 2.378147e+06
 2.476779e+06
 2.648309e+04
 1.055512e+06
 -1.065215e+06
 -1.073510e+06
 1.044088e+06
 -1.417176e+06
 1.412736e+06
 1.980579e+04
 7.563393e+03
 1.657456e+06
 -1.682325e+06
 1.652898e+06
 -1.665244e+06
 7.127597e+05
 -3.537027e+05
 -3.204822e+05
 7.356236e+05
 -1.748300e+06
 7.234261e+05
 -7.102491e+05
 -1.763579e+06
 -7.204770e+05
 1.746844e+06
 1.732580e+06
 4.313432e+05
 -7.156648e+05
 3.173894e+05
 9.882031e+05
 -1.006616e+06
 -1.969464e+06
 2.009125e+05
 1.951838e+06
 -1.869787e+05
 -1.131741e+06
 5.488635e+05
 1.972791e+06
 -1.228470e+06
 1.211802e+06
 -1.990967e+06
 -1.984554e+06
 -1.202484e+06
 1.973162e+06
 1.216427e+06
 -5.430321e+05
 -5.264326e+05
 1.229290e+06
 4.944651e+05
 -2.030093e+06
 2.013652e+06
 2.012616e+06
 -2.064551e+06
 5.992942e+05
 2.021310e+06
 -2.043332e+06
 -2.997866e+05
 3.153553e+05
 1.494269e+06
 1.211615e+06
 -1.502673e+06
 -1.517721e+06
 1.126272e+06
 -1.136269e+06
 1.520173e+06
 -1.146169e+06
 1.066851e+05
 -3.921207e+05
 2.763454e+05
 9.201534e+04
 9.740905e+05
 7.345372e+05
 1.321533e+06
 -7.720955e+05
 -1.324023e+06
 -2.135519e+06
 -2.119109e+06
 1.601330e+06
 1.606889e+06
 2.098846e+06
 2.108366e+06
 -1.617543e+06
 -1.639151e+06
 -7.542073e+05
 -6.544156e+04
 -5.543111e+05
 2.124293e+06
 -2.118268e+06
 5.811155e+05
 -3.157247e+05
 2.138206e+06
 -8.355641e+05
 -2.128641e+06
 8.402525e+05
 -1.367548e+06
 -1.509995e+06
 -1.642672e+06
 -3.505504e+05
 3.383310e+05
 1.630049e+06
 1.524420e+06
 4.468407e+05
 -3.604178e+05
 7.742724e+05
 8.488002e+05
 -1.063465e+06
 1.402978e+06
 -9.261017e+05
 2.155406e+06
 -2.181456e+06
 9.187025e+05
 -1.014613e+05
 2.590100e+05
 -5.948479e+05
 -8.638395e+05
 -7.378488e+05
 -1.312124e+06
 -1.950964e+05
 -8.826749e+05
 6.576801e+05
 2.191786e+06
 -2.200275e+06
 -8.581686e+03
 2.971399e+04
 -5.816623e+05
 -2.022818e+04
 2.235943e+04
 1.718827e+06
 -1.727849e+06
 1.245225e+06
 -1.756198e+06
 1.725222e+06
 1.030071e+06
 -1.741837e+06
 -1.383508e+06
 1.709400e+06
 -1.372988e+06
 1.354147e+06
 8.996901e+05
 1.195672e+06
 1.025563e+06
 -2.220962e+06
 5.571424e+05
 -5.322508e+05
 2.222239e+06
 5.007129e+05
 1.172926e+04
 -5.465458e+05
 2.440117e+05
 2.976370e+05
 2.235077e+06
 -2.210106e+06
 -2.295351e+06
 2.238676e+06
 -1.190178e+06
 2.643581e+05
 3.918939e+05
 3.049145e+05
 -2.816507e+05
 2.225485e+06
 -2.234824e+06
 1.738294e+06
 -1.740172e+06
 1.368768e+06
 -1.757281e+06
 2.227985e+06
 -1.363816e+06
 -2.231960e+06
 -2.238834e+06
 -1.332994e+06
 1.353105e+06
 2.233293e+06
 1.341035e+06
 -1.812407e+06
 1.000714e+06
 -1.011734e+06
 1.781810e+06
 -9.992981e+05
 -5.158974e+05
 -1.045285e+06
 1.808285e+06
 -8.917230e+05
 7.664202e+05
 -2.262377e+05
 4.771354e+05
 -1.074870e+06
 -2.237945e+06
 -2.271693e+06
 -1.866163e+06
 1.841455e+06
 -1.900240e+06
 1.835538e+06
 2.248120e+06
 2.246568e+06
 7.102177e+05
 -5.894142e+05
 5.505735e+05
 9.639727e+05
 1.497489e+06
 -4.564566e+05
 -7.784674e+05
 -1.322816e+06
 1.224318e+06
 -1.238430e+06
 1.269545e+06
 -1.244528e+06
 -6.143709e+05
 1.912250e+05
 1.032875e+06
 1.077460e+06
 -2.252449e+06
 2.261961e+06
 -1.080248e+06
 -1.906529e+06
 1.893792e+06
 1.895610e+06
 -1.930120e+06
 -7.967384e+05
 5.821407e+05
 1.468898e+06
 -1.479743e+06
 1.474467e+06
 -1.497105e+06
 -2.461592e+05
 7.852500e+05
 7.948796e+05
 -1.540626e+06
 1.948131e+06
 -1.957297e+06
 -5.559338e+05
 5.686103e+05
 1.538442e+06
 -3.403021e+05
 4.080439e+05
 1.303099e+06
 -2.042937e+05
 -1.545589e+06
 6.630765e+05
 4.901997e+05
 8.782289e+05
 -1.632262e+05
 -8.809248e+05
 -8.824429e+05
 7.446829e+04
 -2.266851e+06
 2.277964e+06
 -2.446167e+05
 2.710555e+05
 -1.541560e+06
 1.528901e+06
 -1.564516e+06
 1.866558e+06
 -1.975110e+06
 -5.856541e+04
 1.957194e+06
 7.310848e+04
 -1.684647e+06
 -5.670969e+04
 3.599887e+05
 -1.944850e+06
 8.955992e+05
 1.391560e+06
 -4.992334e+05
 9.278257e+05
 -7.565674e+05
 1.984342e+06
 -5.341347e+04
 1.692701e+06
 -1.333711e+06
 -2.292086e+06
 1.124204e+06
 1.219600e+06
 -1.120614e+06
 2.274943e+06
 -1.540053e+06
 2.665057e+05
 -3.486083e+05
 1.529963e+06
 1.572152e+06
 2.494947e+05
 7.230197e+05
 -2.294826e+06
 -7.194499e+05
 2.284364e+06
 -3.110158e+05
 6.027984e+05
 -1.897604e+06
 -1.911929e+06
 1.888346e+06
 1.274924e+06
 -1.215143e+06
 1.045495e+06
 1.796779e+06
 1.791398e+06
 -1.827216e+06
 -5.501384e+05
 -1.801350e+06
 -7.973379e+05
 1.954994e+06
 -1.889652e+06
 -8.984476e+05
 -1.598751e+06
 -1.779058e+05
 1.194120e+06
 1.011832e+06
 7.653152e+05
 -9.240090e+05
 2.314009e+06
 -2.329096e+06
 1.534294e+06
 1.540397e+06
 -2.303191e+06
 2.326396e+06
 -1.538634e+06
 -1.566021e+06
 1.421897e+05
 3.821642e+04
 -1.321857e+06
 2.545493e+05
 1.016443e+06
 -4.048140e+05
 -1.389411e+05
 7.447680e+05
 -7.259018e+05
 -2.302370e+06
 2.325621e+06
 1.421939e+06
 -8.333240e+05
 8.365895e+05
 2.497076e+05
 -2.429248e+05
 1.822543e+06
 -1.844510e+06
 6.177930e+05
 -5.428694e+05
 4.910186e+05
 -2.306885e+06
 -4.759726e+05
 2.301966e+06
 -1.703877e+05
 4.814914e+04
 -1.763084e+06
 1.744452e+06
 -5.107892e+05
 5.147986e+05
 -1.395911e+06
 1.230170e+06
 -1.414525e+06
 -1.413455e+06
 1.402552e+06
 -4.013359e+05
 8.225744e+05
 -2.043473e+06
 2.032262e+06
 -2.051768e+06
 2.848437e+05
 2.029695e+06
 -5.555863e+05
 2.337235e+06
 -1.486918e+06
 2.346804e+06
 -2.035708e+06
 -2.007248e+06
 -1.934043e+06
 -2.106209e+06
 -2.296682e+06
 -2.363194e+06
 -1.016988e+06
 1.986255e+06
 2.052095e+06
 -9.463994e+05
 2.038095e+06
 -1.245041e+06
 -9.376811e+05
 6.889089e+05
 1.993924e+06
 1.527395e+06
 -1.317169e+06
 4.058330e+05
 -9.915087e+05
 9.951004e+05
 8.833970e+05
 -9.026984e+05
 -3.634279e+05
 -8.400855e+05
 -1.446892e+05
 1.481482e+05
 1.544551e+06
 1.928426e+06
 -2.039014e+06
 1.430680e+06
 4.701616e+05
 7.259275e+05
 -2.335184e+05
 -1.174041e+06
 9.422855e+05
 8.347243e+05
 4.994452e+05
 -1.052442e+06
 -1.198993e+06
 -1.675035e+05
 -1.065958e+06
 -5.367674e+05
 5.271013e+05
 7.222589e+05
 -2.077331e+06
 -2.314779e+06
 -1.140134e+05
 2.325136e+06
 1.250363e+05
 1.584655e+06
 -4.190343e+05
 1.125336e+06
 1.102707e+05
 3.737882e+05
 -1.317256e+06
 1.442654e+06
 -1.175605e+06
 -1.176131e+06
 1.779742e+06
 1.163478e+06
 -1.134061e+06
 -1.303722e+06
 1.291780e+06
 -1.709920e+06
 1.783300e+06
 -1.688172e+06
 1.198804e+06
 1.942717e+06
 -2.035324e+06
 1.038837e+06
 1.063932e+05
 1.959808e+05
 1.153326e+06
 -5.736994e+05
 5.840581e+05
 -1.517876e+06
 1.114532e+06
 -6.902846e+05
 5.657608e+05
 -1.564987e+06
 -9.632148e+05
 2.344088e+06
 9.611130e+05
 -2.341775e+06
 8.821487e+05
 -3.467842e+05
 2.366391e+06
 -2.333214e+06
 9.172433e+05
 -9.157309e+05
 -1.481729e+06
 7.495443e+05
 1.077926e+06
 1.576803e+06
 -7.136938e+05
 -2.073376e+06
 2.070208e+06
 -2.097802e+06
 2.074380e+06
 2.124618e+06
 1.549165e+05
 -2.143478e+06
 -1.348384e+05
 -1.069430e+06
 -1.636081e+05
 -7.129396e+05
 1.374175e+06
 8.238149e+05
 -2.182263e+05
 4.294631e+05
 -2.338531e+06
 -4.079765e+05
 2.360609e+06
 2.652280e+05
 -7.279655e+05
 4.347977e+05
 6.310511e+05
 1.715106e+06
 1.712949e+06
 -2.375304e+06
 2.364738e+06
 -1.726480e+06
 -1.713325e+06
 -2.336843e+06
 1.704260e+06
 2.379985e+06
 -1.735093e+06
 -1.738402e+06
 3.464349e+05
 -1.655556e+06
 -9.247083e+05
 2.367078e+06
 1.219470e+06
 -2.331816e+06
 -1.220952e+06
 1.394678e+06
 -1.595676e+06
 -7.167813e+05
 1.731373e+06
 -2.303451e+06
 -2.425441e+06
 2.372614e+06
 2.377392e+06
 2.433075e+05
 -6.666171e+05
 6.699707e+05
 -2.087078e+06
 2.097095e+06
 -8.407946e+05
 2.103324e+06
 -1.134974e+06
 1.180020e+05
 2.360720e+06
 -9.966577e+04
 1.654545e+06
 -2.336013e+06
 -9.478274e+05
 1.876253e+06
 8.786458e+05
 -1.356280e+06
 -1.363262e+06
 1.346882e+06
 -6.779865e+05
 -6.222700e+05
 -2.159591e+06
 6.125738e+05
 1.201403e+06
 -6.222643e+05
 -1.196276e+06
 -2.158054e+06
 2.149561e+06
 1.203069e+06
 1.854293e+05
 -8.433908e+05
 1.845194e+06
 -3.625779e+05
 6.203083e+04
 1.082957e+06
 -3.990319e+05
 4.080665e+05
 1.880089e+06
 -1.906746e+06
 -1.234113e+06
 4.696470e+05
 -6.038373e+05
 7.109410e+05
 6.277956e+05
 -1.182434e+06
 -1.810589e+06
 -6.734608e+05
 5.125610e+05
 -1.381441e+06
 7.555679e+05
 2.132400e+06
 -2.147269e+06
 -1.664246e+05
 1.856027e+05
 1.166760e+05
 -7.773465e+05
 1.380084e+06
 -7.302620e+05
 -2.170851e+06
 -3.736148e+05
 3.914104e+05
 2.180890e+06
 -1.647465e+06
 1.506897e+06
 -1.502582e+06
 4.065784e+05
 1.624270e+06
 -1.537215e+06
 2.273738e+05
 -3.614220e+05
 5.089708e+05
 -1.894825e+06
 1.780024e+06
 -3.768810e+05
 9.298490e+05
 1.627390e+06
 1.570375e+06
 -1.630932e+06
 -1.581026e+06
 1.354085e+06
 1.504436e+06
 -1.653912e+06
 -1.597286e+06
 7.299856e+05
 1.500559e+05
 1.254852e+06
 -2.161827e+06
 2.075921e+06
 -2.364247e+06
 -1.269950e+06
 2.073321e+06
 -2.214383e+06
 -1.211780e+06
 2.364524e+06
 -1.695840e+06
 1.054652e+06
 1.618700e+06
 1.810481e+06
 2.114434e+06
 -1.365596e+06
 -4.640986e+05
 -1.925661e+06
 5.682818e+04
 -5.299957e+04
 1.883530e+06
 -8.828691e+05
 -1.914682e+06
 -1.905298e+06
 1.631821e+06
 1.142330e+06
 -1.845044e+06
 -3.696625e+05
 6.352298e+05
 4.194484e+05
 -4.333478e+05
 1.361113e+06
 -4.533758e+05
 -2.352153e+06
 2.384865e+06
 -5.723901e+05
 6.008745e+05
 -2.004390e+06
 6.497160e+05
 2.175029e+06
 -2.047464e+06
 -4.272060e+04
 2.170886e+06
 -7.178428e+05
 2.139806e+06
 -1.781810e+06
 8.813477e+05
 1.119600e+06
 1.633812e+06
 -1.092763e+05
 1.372501e+06
 -7.573521e+05
 -1.394168e+06
 1.316797e+06
 -1.385894e+06
 -1.604149e+06
 6.472126e+05
 1.423043e+05
 1.346336e+06
 -1.840224e+06
 8.568152e+05
 3.799650e+05
 1.692622e+06
 8.655008e+05
 1.012175e+06
 -1.210656e+06
 1.205474e+06
 1.080403e+06
 1.827984e+06
 -4.235163e+05
 -1.076401e+06
 -1.015703e+06
 -8.617787e+05
 -1.026339e+06
 -5.140639e+05
 -1.403123e+06
 -1.691670e+05
 1.182891e+06
 5.468712e+05
 -6.456722e+05
 3.529645e+05
 -7.001824e+03
 -2.360565e+06
 2.363613e+06
 -2.347475e+06
 -3.252090e+05
 2.374617e+06
 1.401472e+06
 1.263637e+05
 1.408735e+06
 -1.404565e+06
 -2.374699e+06
 -1.431211e+06
 1.367511e+06
 2.392477e+06
 3.882838e+05
 1.130626e+06
 -1.144264e+06
 -1.128131e+06
 3.283060e+05
 -7.221218e+05
 1.750165e+06
 -1.796306e+06
 -1.764149e+06
 1.749818e+06
 2.398844e+06
 -1.174117e+05
 2.401729e+06
 2.198615e+06
 -2.427649e+06
 -2.249516e+06
 -2.334327e+06
 2.193985e+06
 -2.166667e+06
 1.087906e+06
 5.205127e+05
 -2.280879e+05
 -6.819460e+05
 -1.191573e+06
 -1.057351e+05
 -2.156644e+06
 1.258884e+06
 1.387484e+06
 3.295462e+05
 4.235512e+05
 -1.271593e+06
 -5.518128e+05
 -1.285682e+06
 -1.060650e+06
 -9.241198e+05
 8.204859e+04
 -7.976542e+05
 1.371600e+06
 1.514302e+06
 2.150593e+06
 6.235786e+05
 1.643549e+06
 -6.913338e+05
 1.357091e+06
 8.564583e+05
 1.169654e+06
 -1.854041e+05
 1.690563e+06
 -1.276882e+06
 1.798182e+05
 2.102107e+06
 -6.195095e+05
 4.359333e+05
 -6.905842e+05
 6.994220e+05
 1.457150e+06
 7.447817e+05
 2.391312e+06
 -2.401497e+06
 1.468497e+06
 -1.910376e+06
 9.849266e+05
 1.644858e+06
 1.900378e+06
 -1.684976e+06
 7.382910e+04
 -2.347324e+06
 1.898247e+06
 -1.929570e+06
 -1.662997e+06
 2.181107e+06
 2.403998e+06
 -1.498270e+06
 -2.203065e+06
 -2.189716e+06
 -1.090146e+06
 -1.481944e+06
 1.805956e+06
 2.183979e+06
 -2.015267e+04
 1.478457e+06
 -1.445128e+06
 9.034078e+05
 -9.867042e+04
 1.960029e+06
 1.894974e+06
 6.407727e+05
 1.896063e+06
 8.904141e+05
 -9.999666e+05
 -9.906751e+05
 -2.217118e+06
 -2.244814e+06
 2.221253e+06
 1.254117e+06
 -1.670101e+06
 2.209775e+06
 -1.832005e+06
 -1.786857e+06
 2.949662e+05
 4.317839e+05
 -1.308435e+06
 -5.868075e+04
 8.356091e+05
 7.768469e+05
 -6.018454e+05
 2.344601e+06
 1.798674e+06
 -1.829938e+06
 -1.810120e+06
 -2.370632e+06
 1.788888e+06
 6.213424e+05
 1.569039e+06
 -7.621460e+05
 -1.092561e+06
 -1.897276e+06
 -4.263497e+05
 1.054558e+06
 -1.057402e+06
 -3.750808e+05
 -1.903280e+06
 -8.850341e+05
 1.312373e+06
 1.659959e+06
 -2.101837e+06
 -5.977542e+05
 -1.934079e+05
 5.448377e+05
 -1.070499e+06
 -1.554040e+06
 -3.731764e+05
 -3.056297e+05
 -2.462068e+05
 1.607878e+06
 -1.814530e+05
 -4.649456e+05
 2.964603e+05
 6.417171e+05
 9.763511e+05
 -9.743350e+05
 -4.788391e+05
 -1.986291e+06
 -1.995736e+06
 1.973016e+06
 -2.172388e+06
 1.061419e+06
 1.920672e+06
 1.919049e+06
 -1.927098e+06
 -1.953557e+06
 -1.141719e+06
 -5.147830e+05
 7.324848e+05
 6.095670e+05
 -1.461293e+06
 2.042007e+06
 -2.087924e+06
 1.251796e+06
 -4.948097e+05
 2.084860e+06
 4.612109e+05
 -9.886146e+05
 2.789691e+05
 -2.926114e+05
 -1.633803e+06
 -1.895935e+06
 -1.927921e+06
 2.003718e+06
 -2.023427e+06
 6.883293e+04
 -2.169543e+06
 -5.447448e+04
 1.468053e+06
 1.554855e+06
 1.256269e+04
 -4.567619e+05
 1.050857e+06
 2.405884e+06
 -1.545793e+06
 1.521114e+06
 -2.377395e+06
 -1.052232e+06
 -8.174154e+05
 3.722617e+05
 -2.362906e+06
 2.368021e+06
 8.219428e+05
 -5.565358e+05
 1.661805e+06
 1.509701e+06
 -9.345547e+05
 -1.420159e+06
 1.855426e+06
 5.330172e+05
 1.024135e+06
 -8.862775e+05
 2.027928e+06
 -1.691622e+06
 3.609391e+05
 1.663846e+06
 -1.685948e+06
 1.667027e+06
 -1.351486e+06
 -6.274145e+04
 -1.670979e+06
 1.862500e+06
 -1.173127e+06
 1.392173e+06
 1.889752e+06
 -1.840017e+06
 1.141480e+06
 -8.230579e+05
 1.820973e+06
 -1.051980e+05
 9.843230e+05
 1.131506e+05
 -2.195730e+06
 -1.497571e+06
 -9.326561e+05
 -2.154576e+06
 4.325442e+05
 -1.185819e+06
 2.926091e+05
 1.298296e+05
 9.236981e+05
 -1.625738e+06
 9.441443e+05
 -1.774929e+06
 -3.670216e+05
 1.755454e+06
 -1.896229e+05
 3.671412e+05
 -6.002354e+05
 6.107830e+05
 2.233445e+06
 -2.252311e+06
 4.144701e+05
 -2.425205e+05
 1.285340e+06
 -1.191571e+06
 1.752792e+06
 -9.128688e+05
 -1.758593e+06
 1.255229e+06
 -1.777878e+06
 8.519068e+05
 -1.196209e+06
 -9.184984e+04
 -2.989958e+05
 1.928709e+05
 -3.704160e+04
 1.775840e+06
 1.465273e+06
 -1.575432e+06
 1.352861e+05
 -1.496586e+06
 6.185741e+05
 -1.969629e+06
 1.870625e+06
 -1.986225e+05
 2.115934e+05
 9.875373e+05
 1.957729e+06
 7.144523e+05
 1.507134e+06
 1.665895e+06
 2.017104e+06
 1.271761e+06
 -2.001415e+06
 -1.635831e+06
 -4.627400e+05
 1.703736e+06
 2.394122e+06
 -1.053777e+06
 -2.379468e+06
 3.237978e+04
 -1.356964e+06
 8.739262e+05
 -1.268999e+06
 -1.200599e+04
 -1.264904e+06
 -1.851277e+06
 1.254993e+06
 -4.821447e+05
 -9.690455e+05
 1.652883e+04
 9.715459e+05
 -1.453447e+06
 3.428598e+05
 7.818336e+05
 1.331964e+06
 -3.978861e+05
 2.609794e+05
 -2.389931e+06
 2.417839e+06
 -2.833834e+05
 -1.808993e+06
 1.303892e+06
 -2.212929e+06
 -1.416171e+06
 1.093364e+05
 8.881273e+05
 -2.382425e+06
 1.052725e+06
 -1.397850e+06
 -1.058303e+06
 1.386597e+06
 2.384445e+06
 2.221759e+06
 -9.676985e+05
 1.141844e+06
 1.526905e+06
 3.637694e+05
 -1.559954e+06
 -1.541897e+06
 -7.582066e+05
 7.639952e+05
 2.005151e+06
 6.874683e+05
 -2.966951e+05
 -2.014839e+06
 -2.025863e+06
 2.003159e+06
 -6.530785e+05
 1.658490e+06
 -2.480143e+04
 2.090582e+06
 1.779772e+05
 4.066129e+05
 2.093086e+06
 2.254732e+06
 8.483756e+05
 3.481797e+05
 -8.447558e+05
 2.276458e+05
 1.203880e+06
 -1.871068e+06
 9.585947e+05
 -2.063908e+06
 -2.386839e+05
 3.101975e+05
 -5.132978e+05
 1.631654e+06
 -1.233336e+06
 2.221982e+06
 1.537629e+06
 1.006862e+06
 -1.037638e+06
 2.218748e+06
 2.195711e+06
 1.634254e+06
 2.223177e+06
 -2.108995e+06
 -2.147076e+06
 -2.090668e+06
 -1.919983e+06
 -6.271195e+04
 2.073869e+06
 8.157571e+04
 1.162901e+06
 -2.771200e+04
 -1.436148e+06
 1.962549e+06
 1.981408e+06
 4.856405e+05
 1.604998e+06
 -2.233245e+06
 6.953669e+05
 -1.636687e+06
 8.441205e+05
 -8.384687e+05
 2.387524e+06
 2.405104e+05
 2.026645e+06
 1.069199e+06
 -2.381913e+06
 -2.223101e+05
 -2.102324e+05
 -1.874353e+05
 -2.076378e+05
 9.516947e+05
 -1.280545e+06
 -6.438928e+05
 -2.832495e+05
 5.226565e+05
 1.261454e+06
 -1.413796e+06
 -2.092723e+06
 1.034496e+05
 -2.072980e+06
 -9.586957e+05
 9.362550e+05
 2.297537e+05
 -2.591053e+04
 2.000521e+06
 -8.270060e+05
 5.184901e+05
 7.369437e+05
 -2.142813e+06
 -8.087574e+05
 6.784825e+05
 -6.582449e+05
 9.752049e+05
 -1.263095e+06
 -2.221438e+06
 -1.300096e+06
 2.217657e+06
 1.292303e+06
 1.100022e+06
 1.102091e+06
 -1.095600e+06
 -2.137742e+06
 2.127042e+06
 -1.472185e+06
 -1.299997e+06
 1.287483e+06
 1.151405e+06
 2.433281e+06
 6.148817e+05
 -8.167711e+05
 -2.383603e+06
 8.247796e+05
 2.517029e+05
 -5.334445e+05
 1.697081e+06
 -1.412914e+06
 -1.640386e+06
 -1.024062e+06
 -3.488186e+05
 -8.932135e+05
 1.448753e+06
 8.969079e+05
 -1.314747e+06
 7.029185e+05
 -2.137793e+06
 -7.311091e+05
 -3.107446e+05
 -1.464115e+06
 5.898063e+05
 -6.155702e+05
 -2.040830e+06
 1.103698e+06
 -1.676821e+06
 -2.413085e+06
 1.610564e+06
 -2.373947e+06
 2.426462e+06
 1.607222e+06
 2.440849e+06
 -1.631434e+06
 -2.342815e+05
 -1.615321e+06
 1.858741e+06