<?xml version="1.0"?>
<VTKFile type="UnstructuredGrid" version="0.1">
<UnstructuredGrid>
<Piece NumberOfPoints="3830" NumberOfCells="7422">
<Points>
<DataArray NumberOfComponents="3" type="Float64" format="ascii">
 0.000000e+00 0.000000e+00 0.000000e+00
 1.000000e+00 0.000000e+00 0.000000e+00
 1.000000e+00 1.000000e+00 0.000000e+00
 0.000000e+00 1.000000e+00 0.000000e+00
 1.694915e-02 0.000000e+00 0.000000e+00
 3.389831e-02 0.000000e+00 0.000000e+00
 5.084746e-02 0.000000e+00 0.000000e+00
 6.779661e-02 0.000000e+00 0.000000e+00
 8.474576e-02 0.000000e+00 0.000000e+00
 1.016949e-01 0.000000e+00 0.000000e+00
 1.186441e-01 0.000000e+00 0.000000e+00
 1.355932e-01 0.000000e+00 0.000000e+00
 1.525424e-01 0.000000e+00 0.000000e+00
 1.694915e-01 0.000000e+00 0.000000e+00
 1.864407e-01 0.000000e+00 0.000000e+00
 2.033898e-01 0.000000e+00 0.000000e+00
 2.203390e-01 0.000000e+00 0.000000e+00
 2.372881e-01 0.000000e+00 0.000000e+00
 2.542373e-01 0.000000e+00 0.000000e+00
 2.711864e-01 0.000000e+00 0.000000e+00
 2.881356e-01 0.000000e+00 0.000000e+00
 3.050847e-01 0.000000e+00 0.000000e+00
 3.220339e-01 0.000000e+00 0.000000e+00
 3.389831e-01 0.000000e+00 0.000000e+00
 3.559322e-01 0.000000e+00 0.000000e+00
 3.728814e-01 0.000000e+00 0.000000e+00
 3.898305e-01 0.000000e+00 0.000000e+00
 4.067797e-01 0.000000e+00 0.000000e+00
 4.237288e-01 0.000000e+00 0.000000e+00
 4.406780e-01 0.000000e+00 0.000000e+00
 4.576271e-01 0.000000e+00 0.000000e+00
 4.745763e-01 0.000000e+00 0.000000e+00
 4.915254e-01 0.000000e+00 0.000000e+00
 5.084746e-01 0.000000e+00 0.000000e+00
 5.254237e-01 0.000000e+00 0.000000e+00
 5.423729e-01 0.000000e+00 0.000000e+00
 5.593220e-01 0.000000e+00 0.000000e+00
 5.762712e-01 0.000000e+00 0.000000e+00
 5.932203e-01 0.000000e+00 0.000000e+00
 6.101695e-01 0.000000e+00 0.000000e+00
 6.271186e-01 0.000000e+00 0.000000e+00
 6.440678e-01 0.000000e+00 0.000000e+00
 6.610169e-01 0.000000e+00 0.000000e+00
 6.779661e-01 0.000000e+00 0.000000e+00
 6.949153e-01 0.000000e+00 0.000000e+00
 7.118644e-01 0.000000e+00 0.000000e+00
 7.288136e-01 0.000000e+00 0.000000e+00
 7.457627e-01 0.000000e+00 0.000000e+00
 7.627119e-01 0.000000e+00 0.000000e+00
 7.796610e-01 0.000000e+00 0.000000e+00
 7.966102e-01 0.000000e+00 0.000000e+00
 8.135593e-01 0.000000e+00 0.000000e+00
 8.305085e-01 0.000000e+00 0.000000e+00
 8.474576e-01 0.000000e+00 0.000000e+00
 8.644068e-01 0.000000e+00 0.000000e+00
 8.813559e-01 0.000000e+00 0.000000e+00
 8.983051e-01 0.000000e+00 0.000000e+00
 9.152542e-01 0.000000e+00 0.000000e+00
 9.322034e-01 0.000000e+00 0.000000e+00
 9.491525e-01 0.000000e+00 0.000000e+00
 9.661017e-01 0.000000e+00 0.000000e+00
 9.830508e-01 0.000000e+00 0.000000e+00
 1.000000e+00 1.694915e-02 0.000000e+00
 1.000000e+00 3.389831e-02 0.000000e+00
 1.000000e+00 5.084746e-02 0.000000e+00
 1.000000e+00 6.779661e-02 0.000000e+00
 1.000000e+00 8.474576e-02 0.000000e+00
 1.000000e+00 1.016949e-01 0.000000e+00
 1.000000e+00 1.186441e-01 0.000000e+00
 1.000000e+00 1.355932e-01 0.000000e+00
 1.000000e+00 1.525424e-01 0.000000e+00
 1.000000e+00 1.694915e-01 0.000000e+00
 1.000000e+00 1.864407e-01 0.000000e+00
 1.000000e+00 2.033898e-01 0.000000e+00
 1.000000e+00 2.203390e-01 0.000000e+00
 1.000000e+00 2.372881e-01 0.000000e+00
 1.000000e+00 2.542373e-01 0.000000e+00
 1.000000e+00 2.711864e-01 0.000000e+00
 1.000000e+00 2.881356e-01 0.000000e+00
 1.000000e+00 3.050847e-01 0.000000e+00
 1.000000e+00 3.220339e-01 0.000000e+00
 1.000000e+00 3.389831e-01 0.000000e+00
 1.000000e+00 3.559322e-01 0.000000e+00
 1.000000e+00 3.728814e-01 0.000000e+00
 1.000000e+00 3.898305e-01 0.000000e+00
 1.000000e+00 4.067797e-01 0.000000e+00
 1.000000e+00 4.237288e-01 0.000000e+00
 1.000000e+00 4.406780e-01 0.000000e+00
 1.000000e+00 4.576271e-01 0.000000e+00
 1.000000e+00 4.745763e-01 0.000000e+00
 1.000000e+00 4.915254e-01 0.000000e+00
 1.000000e+00 5.084746e-01 0.000000e+00
 1.000000e+00 5.254237e-01 0.000000e+00
 1.000000e+00 5.423729e-01 0.000000e+00
 1.000000e+00 5.593220e-01 0.000000e+00
 1.000000e+00 5.762712e-01 0.000000e+00
 1.000000e+00 5.932203e-01 0.000000e+00
 1.000000e+00 6.101695e-01 0.000000e+00
 1.000000e+00 6.271186e-01 0.000000e+00
 1.000000e+00 6.440678e-01 0.000000e+00
 1.000000e+00 6.610169e-01 0.000000e+00
 1.000000e+00 6.779661e-01 0.000000e+00
 1.000000e+00 6.949153e-01 0.000000e+00
 1.000000e+00 7.118644e-01 0.000000e+00
 1.000000e+00 7.288136e-01 0.000000e+00
 1.000000e+00 7.457627e-01 0.000000e+00
 1.000000e+00 7.627119e-01 0.000000e+00
 1.000000e+00 7.796610e-01 0.000000e+00
 1.000000e+00 7.966102e-01 0.000000e+00
 1.000000e+00 8.135593e-01 0.000000e+00
 1.000000e+00 8.305085e-01 0.000000e+00
 1.000000e+00 8.474576e-01 0.000000e+00
 1.000000e+00 8.644068e-01 0.000000e+00
 1.000000e+00 8.813559e-01 0.000000e+00
 1.000000e+00 8.983051e-01 0.000000e+00
 1.000000e+00 9.152542e-01 0.000000e+00
 1.000000e+00 9.322034e-01 0.000000e+00
 1.000000e+00 9.491525e-01 0.000000e+00
 1.000000e+00 9.661017e-01 0.000000e+00
 1.000000e+00 9.830508e-01 0.000000e+00
 9.830508e-01 1.000000e+00 0.000000e+00
 9.661017e-01 1.000000e+00 0.000000e+00
 9.491525e-01 1.000000e+00 0.000000e+00
 9.322034e-01 1.000000e+00 0.000000e+00
 9.152542e-01 1.000000e+00 0.000000e+00
 8.983051e-01 1.000000e+00 0.000000e+00
 8.813559e-01 1.000000e+00 0.000000e+00
 8.644068e-01 1.000000e+00 0.000000e+00
 8.474576e-01 1.000000e+00 0.000000e+00
 8.305085e-01 1.000000e+00 0.000000e+00
 8.135593e-01 1.000000e+00 0.000000e+00
 7.966102e-01 1.000000e+00 0.000000e+00
 7.796610e-01 1.000000e+00 0.000000e+00
 7.627119e-01 1.000000e+00 0.000000e+00
 7.457627e-01 1.000000e+00 0.000000e+00
 7.288136e-01 1.000000e+00 0.000000e+00
 7.118644e-01 1.000000e+00 0.000000e+00
 6.949153e-01 1.000000e+00 0.000000e+00
 6.779661e-01 1.000000e+00 0.000000e+00
 6.610169e-01 1.000000e+00 0.000000e+00
 6.440678e-01 1.000000e+00 0.000000e+00
 6.271186e-01 1.000000e+00 0.000000e+00
 6.101695e-01 1.000000e+00 0.000000e+00
 5.932203e-01 1.000000e+00 0.000000e+00
 5.762712e-01 1.000000e+00 0.000000e+00
 5.593220e-01 1.000000e+00 0.000000e+00
 5.423729e-01 1.000000e+00 0.000000e+00
 5.254237e-01 1.000000e+00 0.000000e+00
 5.084746e-01 1.000000e+00 0.000000e+00
 4.915254e-01 1.000000e+00 0.000000e+00
 4.745763e-01 1.000000e+00 0.000000e+00
 4.576271e-01 1.000000e+00 0.000000e+00
 4.406780e-01 1.000000e+00 0.000000e+00
 4.237288e-01 1.000000e+00 0.000000e+00
 4.067797e-01 1.000000e+00 0.000000e+00
 3.898305e-01 1.000000e+00 0.000000e+00
 3.728814e-01 1.000000e+00 0.000000e+00
 3.559322e-01 1.000000e+00 0.000000e+00
 3.389831e-01 1.000000e+00 0.000000e+00
 3.220339e-01 1.000000e+00 0.000000e+00
 3.050847e-01 1.000000e+00 0.000000e+00
 2.881356e-01 1.000000e+00 0.000000e+00
 2.711864e-01 1.000000e+00 0.000000e+00
 2.542373e-01 1.000000e+00 0.000000e+00
 2.372881e-01 1.000000e+00 0.000000e+00
 2.203390e-01 1.000000e+00 0.000000e+00
 2.033898e-01 1.000000e+00 0.000000e+00
 1.864407e-01 1.000000e+00 0.000000e+00
 1.694915e-01 1.000000e+00 0.000000e+00
 1.525424e-01 1.000000e+00 0.000000e+00
 1.355932e-01 1.000000e+00 0.000000e+00
 1.186441e-01 1.000000e+00 0.000000e+00
 1.016949e-01 1.000000e+00 0.000000e+00
 8.474576e-02 1.000000e+00 0.000000e+00
 6.779661e-02 1.000000e+00 0.000000e+00
 5.084746e-02 1.000000e+00 0.000000e+00
 3.389831e-02 1.000000e+00 0.000000e+00
 1.694915e-02 1.000000e+00 0.000000e+00
 0.000000e+00 9.830508e-01 0.000000e+00
 0.000000e+00 9.661017e-01 0.000000e+00
 0.000000e+00 9.491525e-01 0.000000e+00
 0.000000e+00 9.322034e-01 0.000000e+00
 0.000000e+00 9.152542e-01 0.000000e+00
 0.000000e+00 8.983051e-01 0.000000e+00
 0.000000e+00 8.813559e-01 0.000000e+00
 0.000000e+00 8.644068e-01 0.000000e+00
 0.000000e+00 8.474576e-01 0.000000e+00
 0.000000e+00 8.305085e-01 0.000000e+00
 0.000000e+00 8.135593e-01 0.000000e+00
 0.000000e+00 7.966102e-01 0.000000e+00
 0.000000e+00 7.796610e-01 0.000000e+00
 0.000000e+00 7.627119e-01 0.000000e+00
 0.000000e+00 7.457627e-01 0.000000e+00
 0.000000e+00 7.288136e-01 0.000000e+00
 0.000000e+00 7.118644e-01 0.000000e+00
 0.000000e+00 6.949153e-01 0.000000e+00
 0.000000e+00 6.779661e-01 0.000000e+00
 0.000000e+00 6.610169e-01 0.000000e+00
 0.000000e+00 6.440678e-01 0.000000e+00
 0.000000e+00 6.271186e-01 0.000000e+00
 0.000000e+00 6.101695e-01 0.000000e+00
 0.000000e+00 5.932203e-01 0.000000e+00
 0.000000e+00 5.762712e-01 0.000000e+00
 0.000000e+00 5.593220e-01 0.000000e+00
 0.000000e+00 5.423729e-01 0.000000e+00
 0.000000e+00 5.254237e-01 0.000000e+00
 0.000000e+00 5.084746e-01 0.000000e+00
 0.000000e+00 4.915254e-01 0.000000e+00
 0.000000e+00 4.745763e-01 0.000000e+00
 0.000000e+00 4.576271e-01 0.000000e+00
 0.000000e+00 4.406780e-01 0.000000e+00
 0.000000e+00 4.237288e-01 0.000000e+00
 0.000000e+00 4.067797e-01 0.000000e+00
 0.000000e+00 3.898305e-01 0.000000e+00
 0.000000e+00 3.728814e-01 0.000000e+00
 0.000000e+00 3.559322e-01 0.000000e+00
 0.000000e+00 3.389831e-01 0.000000e+00
 0.000000e+00 3.220339e-01 0.000000e+00
 0.000000e+00 3.050847e-01 0.000000e+00
 0.000000e+00 2.881356e-01 0.000000e+00
 0.000000e+00 2.711864e-01 0.000000e+00
 0.000000e+00 2.542373e-01 0.000000e+00
 0.000000e+00 2.372881e-01 0.000000e+00
 0.000000e+00 2.203390e-01 0.000000e+00
 0.000000e+00 2.033898e-01 0.000000e+00
 0.000000e+00 1.864407e-01 0.000000e+00
 0.000000e+00 1.694915e-01 0.000000e+00
 0.000000e+00 1.525424e-01 0.000000e+00
 0.000000e+00 1.355932e-01 0.000000e+00
 0.000000e+00 1.186441e-01 0.000000e+00
 0.000000e+00 1.016949e-01 0.000000e+00
 0.000000e+00 8.474576e-02 0.000000e+00
 0.000000e+00 6.779661e-02 0.000000e+00
 0.000000e+00 5.084746e-02 0.000000e+00
 0.000000e+00 3.389831e-02 0.000000e+00
 0.000000e+00 1.694915e-02 0.000000e+00
 5.005028e-01 4.998391e-01 0.000000e+00
 7.071661e-01 2.918712e-01 0.000000e+00
 7.058461e-01 7.075282e-01 0.000000e+00
 2.933884e-01 7.073367e-01 0.000000e+00
 2.938885e-01 2.941144e-01 0.000000e+00
 4.999703e-01 7.791089e-01 0.000000e+00
 5.001569e-01 2.194803e-01 0.000000e+00
 2.181991e-01 4.983680e-01 0.000000e+00
[...]
<PointData Scalars="press" Vectors="vel">
<DataArray Name="press" type="Float64" NumberOfComponents="1" format="ascii">
 2.537803e+06
 2.447382e+06
 -2.446756e+06
 -2.734673e+06
 2.543586e+06
 2.531772e+06
 2.537183e+06
 2.526065e+06
 2.529032e+06
 2.527380e+06
 2.518013e+06
 2.513976e+06
 2.509953e+06
 2.507047e+06
 2.500782e+06
 2.496021e+06
 2.489980e+06
 2.485753e+06
 2.473723e+06
 2.475700e+06
 2.463530e+06
 2.452978e+06
 2.443261e+06
 2.425425e+06
 2.405386e+06
 2.391259e+06
 2.399412e+06
 2.424938e+06
 2.440788e+06
 2.449540e+06
 2.457632e+06
 2.466944e+06
 2.473961e+06
 2.481981e+06
 2.489817e+06
 2.501354e+06
 2.500732e+06
 2.510799e+06
 2.519690e+06
 2.519629e+06
 2.523018e+06
 2.522739e+06
 2.523153e+06
 2.520107e+06
 2.518121e+06
 2.517608e+06
 2.516944e+06
 2.515704e+06
 2.514095e+06
 2.505571e+06
 2.509656e+06
 2.508301e+06
 2.508113e+06
 2.503727e+06
 2.502406e+06
 2.501106e+06
 2.506087e+06
 2.505203e+06
 2.498747e+06
 2.499921e+06
 2.480534e+06
 2.464182e+06
 2.425398e+06
 2.367484e+06
 2.286739e+06
 2.199797e+06
 2.110309e+06
 2.019729e+06
 1.929182e+06
 1.839783e+06
 1.751054e+06
 1.663755e+06
 1.576970e+06
 1.491568e+06
 1.406918e+06
 1.322808e+06
 1.238479e+06
 1.154610e+06
 1.070339e+06
 9.862391e+05
 9.016725e+05
 8.168613e+05
 7.318840e+05
 6.463904e+05
 5.609690e+05
 4.748953e+05
 3.889365e+05
 3.023881e+05
 2.159869e+05
 1.291103e+05
 4.213232e+04
 -4.474261e+04
 -1.320059e+05
 -2.190791e+05
 -3.062583e+05
 -3.934046e+05
 -4.807377e+05
 -5.678440e+05
 -6.547307e+05
 -7.421378e+05
 -8.288195e+05
 -9.156794e+05
 -1.002163e+06
 -1.088462e+06
 -1.174580e+06
 -1.260468e+06
 -1.345898e+06
 -1.431198e+06
 -1.516032e+06
 -1.600367e+06
 -1.684245e+06
 -1.766933e+06
 -1.848591e+06
 -1.928410e+06
 -2.006122e+06
 -2.081730e+06
 -2.155054e+06
 -2.225280e+06
 -2.295545e+06
 -2.357089e+06
 -2.441499e+06
 -2.455859e+06
 -2.452998e+06
 -2.468174e+06
 -2.468636e+06
 -2.472911e+06
 -2.485380e+06
 -2.491725e+06
 -2.496766e+06
 -2.499628e+06
 -2.505096e+06
 -2.509041e+06
 -2.518094e+06
 -2.513444e+06
 -2.516828e+06
 -2.522556e+06
 -2.528627e+06
 -2.535902e+06
 -2.540363e+06
 -2.542565e+06
 -2.546811e+06
 -2.548696e+06
 -2.552877e+06
 -2.554987e+06
 -2.558324e+06
 -2.561034e+06
 -2.564953e+06
 -2.565883e+06
 -2.570455e+06
 -2.571158e+06
 -2.570177e+06
 -2.569153e+06
 -2.566480e+06
 -2.559610e+06
 -2.555926e+06
 -2.558704e+06
 -2.551335e+06
 -2.549954e+06
 -2.550754e+06
 -2.547960e+06
 -2.550903e+06
 -2.548416e+06
 -2.542993e+06
 -2.551651e+06
 -2.544453e+06
 -2.546086e+06
 -2.546403e+06
 -2.548574e+06
 -2.550004e+06
 -2.556719e+06
 -2.562968e+06
 -2.571607e+06
 -2.577706e+06
 -2.595625e+06
 -2.623460e+06
 -2.649572e+06
 -2.694233e+06
 -2.723157e+06
 -2.577646e+06
 -2.445197e+06
 -2.330029e+06
 -2.225003e+06
 -2.125226e+06
 -2.031104e+06
 -1.939720e+06
 -1.849215e+06
 -1.761494e+06
 -1.674248e+06
 -1.588794e+06
 -1.503692e+06
 -1.418980e+06
 -1.334306e+06
 -1.249244e+06
 -1.162008e+06
 -1.073106e+06
 -9.818598e+05
 -8.894410e+05
 -7.969400e+05
 -7.063943e+05
 -6.184661e+05
 -5.325278e+05
 -4.470223e+05
 -3.615934e+05
 -2.758931e+05
 -1.898937e+05
 -1.037884e+05
 -1.754982e+04
 6.868057e+04
 1.546274e+05
 2.404291e+05
 3.258080e+05
 4.107165e+05
 4.950531e+05
 5.790758e+05
 6.626645e+05
 7.458143e+05
 8.288858e+05
 9.117270e+05
 9.946169e+05
 1.077463e+06
 1.160412e+06
 1.243510e+06
 1.326780e+06
 1.410237e+06
 1.493989e+06
 1.578079e+06
 1.662556e+06
 1.747701e+06
 1.833573e+06
 1.920527e+06
 2.008886e+06
 2.098728e+06
 2.190206e+06
 2.283795e+06
 2.376720e+06
 2.475053e+06
 2.597030e+04
 1.055491e+06
 -1.065797e+06
 -1.077017e+06
 1.039280e+06
 -1.419306e+06
 1.411040e+06
 7.097372e+04
 7.733801e+03
 1.654153e+06
 -1.682577e+06
 1.652583e+06
 -1.664647e+06
 7.169581e+05
 -3.519470e+05
 -3.201477e+05
 7.274497e+05
 -1.748630e+06
 7.226410e+05
 -7.134917e+05
 -1.765205e+06
 -7.207743e+05
 1.742178e+06
 1.732070e+06
 4.691702e+05
 -7.270017e+05
 3.171055e+05
 9.831707e+05
 -1.007534e+06
 -1.971372e+06
 2.088040e+05
 1.949724e+06
 -1.868799e+05
 -1.133299e+06
 5.451127e+05
 1.972684e+06
 -1.228556e+06
 1.211234e+06
 -1.991166e+06
 -1.984163e+06
 -1.209912e+06
 1.969729e+06
 1.212375e+06
 -5.454406e+05
 -5.275940e+05
 1.229746e+06
 5.134830e+05
 -2.028500e+06
 2.013423e+06
 2.010103e+06
 -2.064897e+06
 5.996690e+05
 2.020387e+06
 -2.044705e+06
 -2.961026e+05
 3.148406e+05
 1.493645e+06
 1.207928e+06
 -1.502863e+06
 -1.520023e+06
 1.125474e+06
 -1.136561e+06
 1.515132e+06
 -1.148962e+06
 1.209234e+05
 -3.998686e+05
 2.804436e+05
 6.962415e+04
 9.754073e+05
 7.351529e+05
 1.314750e+06
 -7.754789e+05
 -1.324513e+06
 -2.136412e+06
 -2.118843e+06
 1.600484e+06
 1.603594e+06
 2.095995e+06
 2.108152e+06
 -1.616756e+06
 -1.615053e+06
 -7.543161e+05
 -6.448735e+04
 -5.548770e+05
 2.118402e+06
 -2.118858e+06
 5.787665e+05
 -3.215802e+05
 2.137959e+06
 -8.312036e+05
 -2.128262e+06
 8.396400e+05
 -1.370115e+06
 -1.512321e+06
 -1.643347e+06
 -3.495696e+05
 3.384992e+05
 1.629477e+06
 1.520462e+06
 4.235151e+05
 -3.607986e+05
 7.722386e+05
 8.422454e+05
 -1.065246e+06
 1.402737e+06
 -9.268785e+05
 2.152976e+06
 -2.181270e+06
 9.144480e+05
 -1.034368e+05
 2.595199e+05
 -5.984163e+05
 -8.643950e+05
 -7.369931e+05
 -1.313866e+06
 -1.721027e+05
 -8.888155e+05
 6.625134e+05
 2.190069e+06
 -2.200838e+06
 -4.783925e+03
 2.941140e+04
 -5.805310e+05
 1.616592e+04
 2.243184e+04
 1.717624e+06
 -1.729136e+06
 1.242161e+06
 -1.757567e+06
 1.724775e+06
 1.024886e+06
 -1.741948e+06
 -1.381962e+06
 1.705380e+06
 -1.372886e+06
 1.353771e+06
 8.996358e+05
 1.195873e+06
 1.026104e+06
 -2.221291e+06
 5.565670e+05
 -5.314372e+05
 2.221638e+06
 5.006041e+05
 1.320315e+04
 -5.470986e+05
 2.520558e+05
 3.066313e+05
 2.233645e+06
 -2.208178e+06
 -2.297582e+06
 2.239431e+06
 -1.192696e+06
 2.709071e+05
 4.051520e+05
 3.068361e+05
 -2.820733e+05
 2.222064e+06
 -2.235643e+06
 1.738195e+06
 -1.739956e+06
 1.365494e+06
 -1.758288e+06
 2.224999e+06
 -1.363725e+06
 -2.231405e+06
 -2.239897e+06
 -1.341117e+06
 1.349285e+06
 2.233186e+06
 1.340122e+06
 -1.814396e+06
 9.997138e+05
 -1.012134e+06
 1.777632e+06
 -1.003666e+06
 -5.153724e+05
 -1.046955e+06
 1.804925e+06
 -9.017298e+05
 7.654634e+05
 -2.260932e+05
 4.731581e+05
 -1.077897e+06
 -2.237690e+06
 -2.272727e+06
 -1.864483e+06
 1.840644e+06
 -1.876925e+06
 1.832565e+06
 2.248297e+06
 2.244305e+06
 7.174247e+05
 -5.944547e+05
 5.507717e+05
 9.656474e+05
 1.497276e+06
 -4.565350e+05
 -7.798526e+05
 -1.323155e+06
 1.223846e+06
 -1.238770e+06
 1.265178e+06
 -1.248667e+06
 -6.149484e+05
 1.974744e+05
 1.025911e+06
 1.076674e+06
 -2.251472e+06
 2.261878e+06
 -1.082368e+06
 -1.905462e+06
 1.893375e+06
 1.892616e+06
 -1.930727e+06
 -8.035879e+05
 5.824976e+05
 1.468446e+06
 -1.479798e+06
 1.470859e+06
 -1.499158e+06
 -2.503798e+05
 7.890354e+05
 7.950765e+05
 -1.540986e+06
 1.947439e+06
 -1.958154e+06
 -5.553702e+05
 5.676070e+05
 1.532936e+06
 -3.328024e+05
 4.480358e+05
 1.296884e+06
 -2.089941e+05
 -1.545758e+06
 6.517658e+05
 4.976560e+05
 8.777764e+05
 -1.531989e+05
 -8.854170e+05
 -8.828070e+05
 7.580476e+04
 -2.266441e+06
 2.276868e+06
 -2.440682e+05
 2.706057e+05
 -1.541004e+06
 1.528316e+06
 -1.560457e+06
 1.863155e+06
 -1.976897e+06
 -4.756402e+04
 1.956010e+06
 7.310117e+04
 -1.686412e+06
 -5.577858e+04
 3.605946e+05
 -1.946001e+06
 8.899213e+05
 1.391326e+06
 -5.047069e+05
 9.306054e+05
 -7.571505e+05
 1.981326e+06
 -6.054332e+04
 1.690239e+06
 -1.336493e+06
 -2.291962e+06
 1.120211e+06
 1.213634e+06
 -1.121132e+06
 2.272068e+06
 -1.542517e+06
 2.739794e+05
 -3.502059e+05
 1.524104e+06
 1.569031e+06
 2.506191e+05
 7.201404e+05
 -2.294605e+06
 -7.202790e+05
 2.281418e+06
 -3.102904e+05
 6.129436e+05
 -1.896943e+06
 -1.912799e+06
 1.888035e+06
 1.274640e+06
 -1.216674e+06
 1.041509e+06
 1.793791e+06
 1.790794e+06
 -1.828111e+06
 -5.531329e+05
 -1.800225e+06
 -7.979970e+05
 1.954892e+06
 -1.889847e+06
 -9.092449e+05
 -1.600868e+06
 -1.826917e+05
 1.193123e+06
 1.009544e+06
 7.670679e+05
 -9.237064e+05
 2.311206e+06
 -2.330506e+06
 1.533142e+06
 1.536794e+06
 -2.303116e+06
 2.326394e+06
 -1.542784e+06
 -1.565434e+06
 1.426347e+05
 3.892746e+04
 -1.324830e+06
 2.903762e+05
 1.011309e+06
 -4.056278e+05
 -1.391450e+05
 7.440960e+05
 -7.171393e+05
 -2.302436e+06
 2.325558e+06
 1.418447e+06
 -8.347977e+05
 8.355146e+05
 2.496901e+05
 -2.346415e+05
 1.821794e+06
 -1.845695e+06
 6.280604e+05
 -5.464949e+05
 4.904275e+05
 -2.306672e+06
 -4.766309e+05
 2.300376e+06
 -1.688329e+05
 7.640370e+04
 -1.763695e+06
 1.743924e+06
 -5.124338e+05
 5.146690e+05
 -1.398158e+06
 1.230376e+06
 -1.414146e+06
 -1.406502e+06
 1.401805e+06
 -3.968902e+05
 8.195964e+05
 -2.043208e+06
 2.031987e+06
 -2.052305e+06
 3.004605e+05
 2.026460e+06
 -5.552738e+05
 2.335288e+06
 -1.487975e+06
 2.347856e+06
 -2.033102e+06
 -2.008939e+06
 -1.935584e+06
 -2.086538e+06
 -2.296120e+06
 -2.366093e+06
 -1.017574e+06
 1.983015e+06
 2.051954e+06
 -9.475235e+05
 2.035977e+06
 -1.246828e+06
 -9.391252e+05
 6.834699e+05
 1.990370e+06
 1.526865e+06
 -1.320208e+06
 4.071027e+05
 -9.934243e+05
 9.945553e+05
 8.837487e+05
 -9.117217e+05
 -3.635805e+05
 -8.388784e+05
 -1.199947e+05
 1.483293e+05
 1.543438e+06
 1.928072e+06
 -2.038523e+06
 1.427903e+06
 4.554450e+05
 7.200480e+05
 -2.335949e+05
 -1.174631e+06
 9.357414e+05
 8.270753e+05
 4.991780e+05
 -1.052814e+06
 -1.201677e+06
 -1.668217e+05
 -1.070868e+06
 -5.370820e+05
 5.379026e+05
 7.225855e+05
 -2.077811e+06
 -2.313706e+06
 -1.144391e+05
 2.323063e+06
 1.270556e+05
 1.584222e+06
 -4.231714e+05
 1.117766e+06
 1.106352e+05
 3.739716e+05
 -1.320146e+06
 1.438327e+06
 -1.172632e+06
 -1.176351e+06
 1.775654e+06
 1.162740e+06
 -1.135469e+06
 -1.303951e+06
 1.291070e+06
 -1.711025e+06
 1.783151e+06
 -1.688249e+06
 1.194826e+06
 1.936606e+06
 -2.036040e+06
 1.034117e+06
 1.618317e+05
 1.966429e+05
 1.153395e+06
 -5.743839e+05
 5.732174e+05
 -1.519800e+06
 1.115561e+06
 -6.957282e+05
 5.698669e+05
 -1.565126e+06
 -9.639924e+05
 2.340996e+06
 9.574042e+05
 -2.341783e+06
 8.782567e+05
 -3.423776e+05
 2.366500e+06
 -2.333222e+06
 9.164799e+05
 -9.064334e+05
 -1.482388e+06
 7.454239e+05
 1.077494e+06
 1.574584e+06
 -7.146901e+05
 -2.072313e+06
 2.070005e+06
 -2.098561e+06
 2.071730e+06
 2.122242e+06
 1.596583e+05
 -2.145144e+06
 -1.350254e+05
 -1.069856e+06
 -1.388791e+05
 -7.163065e+05
 1.373403e+06
 8.216355e+05
 -2.187550e+05
 4.289096e+05
 -2.338192e+06
 -4.092475e+05
 2.359994e+06
 2.762299e+05
 -7.293273e+05
 4.352224e+05
 6.431138e+05
 1.711801e+06
 1.711633e+06
 -2.376713e+06
 2.362149e+06
 -1.724449e+06
 -1.712471e+06
 -2.336653e+06
 1.703730e+06
 2.380444e+06
 -1.733789e+06
 -1.738219e+06
 3.613053e+05
 -1.657673e+06
 -9.254054e+05
 2.367172e+06
 1.218511e+06
 -2.331254e+06
 -1.226907e+06
 1.389291e+06
 -1.597171e+06
 -7.220016e+05
 1.728290e+06
 -2.301967e+06
 -2.437133e+06
 2.374384e+06
 2.375884e+06
 2.579292e+05
 -6.646118e+05
 6.692761e+05
 -2.087499e+06
 2.096615e+06
 -8.414582e+05
 2.100285e+06
 -1.135363e+06
 1.175699e+05
 2.359128e+06
 -9.889056e+04
 1.649700e+06
 -2.334658e+06
 -9.535640e+05
 1.872625e+06
 8.796057e+05
 -1.356056e+06
 -1.349681e+06
 1.346362e+06
 -6.850948e+05
 -6.225111e+05
 -2.160400e+06
 6.023822e+05
 1.197309e+06
 -6.275701e+05
 -1.202685e+06
 -2.157412e+06
 2.149344e+06
 1.202318e+06
 1.911068e+05
 -8.438268e+05
 1.841260e+06
 -3.617279e+05
 7.063525e+04
 1.083794e+06
 -3.968351e+05
 4.076758e+05
 1.879395e+06
 -1.907846e+06
 -1.236769e+06
 4.937983e+05
 -6.049367e+05
 7.112519e+05
 6.348008e+05
 -1.184881e+06
 -1.812248e+06
 -6.738403e+05
 5.332873e+05
 -1.382097e+06
 7.557747e+05
 2.131208e+06
 -2.148243e+06
 -1.624078e+05
 1.852434e+05
 1.004529e+05
 -7.778614e+05
 1.380036e+06
 -7.356993e+05
 -2.171537e+06
 -3.726948e+05
 3.908962e+05
 2.179965e+06
 -1.648415e+06
 1.506622e+06
 -1.502380e+06
 4.081232e+05
 1.620596e+06
 -1.537493e+06
 2.344620e+05
 -3.524961e+05
 5.138856e+05
 -1.894692e+06
 1.779585e+06
 -3.813957e+05
 9.298660e+05
 1.627222e+06
 1.569961e+06
 -1.630690e+06
 -1.581105e+06
 1.350735e+06
 1.501157e+06
 -1.655377e+06
 -1.599276e+06
 7.300516e+05
 1.504771e+05
 1.250985e+06
 -2.160240e+06
 2.075904e+06
 -2.364139e+06
 -1.270210e+06
 2.071220e+06
 -2.215485e+06
 -1.212158e+06
 2.361591e+06
 -1.696002e+06
 1.055734e+06
 1.613767e+06
 1.808964e+06
 2.114263e+06
 -1.365901e+06
 -4.648578e+05
 -1.926182e+06
 7.467658e+04
 -5.290070e+04
 1.883392e+06
 -8.837613e+05
 -1.915235e+06
 -1.904928e+06
 1.631293e+06
 1.138133e+06
 -1.845847e+06
 -3.697110e+05
 6.361405e+05
 4.231342e+05
 -4.343159e+05
 1.357206e+06
 -4.519674e+05
 -2.352138e+06
 2.384700e+06
 -5.704823e+05
 6.002433e+05
 -2.002370e+06
 6.499894e+05
 2.175191e+06
 -2.046962e+06
 -2.429991e+04
 2.168856e+06
 -7.186166e+05
 2.137279e+06
 -1.783022e+06
 8.747748e+05
 1.114992e+06
 1.629304e+06
 -1.137863e+05
 1.371857e+06
 -7.643220e+05
 -1.397527e+06
 1.313016e+06
 -1.386137e+06
 -1.604373e+06
 6.580659e+05
 1.466536e+05
 1.342860e+06
 -1.842129e+06
 8.606455e+05
 3.784600e+05
 1.687916e+06
 8.643781e+05
 1.011154e+06
 -1.214239e+06
 1.200262e+06
 1.075678e+06
 1.825677e+06
 -4.286747e+05
 -1.078468e+06
 -1.018232e+06
 -8.658240e+05
 -1.026665e+06
 -5.156074e+05
 -1.403415e+06
 -1.762046e+05
 1.176079e+06
 5.437188e+05
 -6.464732e+05
 3.535084e+05
 -6.249216e+03
 -2.359038e+06
 2.363889e+06
 -2.346917e+06
 -3.257810e+05
 2.371735e+06
 1.400332e+06
 1.680230e+05
 1.404973e+06
 -1.411399e+06
 -2.374704e+06
 -1.431042e+06
 1.362329e+06
 2.392764e+06
 4.237822e+05
 1.130121e+06
 -1.144544e+06
 -1.133764e+06
 3.533854e+05
 -7.225218e+05
 1.747055e+06
 -1.786084e+06
 -1.762999e+06
 1.749043e+06
 2.397028e+06
 -1.166432e+05
 2.403241e+06
 2.199484e+06
 -2.434450e+06
 -2.234970e+06
 -2.333348e+06
 2.192639e+06
 -2.164119e+06
 1.087667e+06
 5.210385e+05
 -2.326002e+05
 -6.821776e+05
 -1.192572e+06
 -1.082661e+05
 -2.157652e+06
 1.258178e+06
 1.381077e+06
 3.321662e+05
 4.135166e+05
 -1.271740e+06
 -5.597301e+05
 -1.287038e+06
 -1.063250e+06
 -9.346563e+05
 7.575864e+04
 -8.030700e+05
 1.371621e+06
 1.513967e+06
 2.145955e+06
 6.165040e+05
 1.643132e+06
 -6.904332e+05
 1.356592e+06
 8.593735e+05
 1.165829e+06
 -1.695225e+05
 1.689737e+06
 -1.276890e+06
 1.799369e+05
 2.098965e+06
 -6.207955e+05
 4.363693e+05
 -6.914892e+05
 6.982437e+05
 1.451487e+06
 7.465162e+05
 2.389009e+06
 -2.403527e+06
 1.464915e+06
 -1.908124e+06
 9.844284e+05
 1.644177e+06
 1.897675e+06
 -1.683061e+06
 7.159223e+04
 -2.346950e+06
 1.897225e+06
 -1.914448e+06
 -1.662160e+06
 2.178199e+06
 2.404957e+06
 -1.497788e+06
 -2.203865e+06
 -2.189573e+06
 -1.090556e+06
 -1.481059e+06
 1.802720e+06
 2.183818e+06
 -1.957915e+04
 1.477535e+06
 -1.447807e+06
 9.002625e+05
 -9.833380e+04
 1.956956e+06
 1.894464e+06
 6.405792e+05
 1.893254e+06
 8.855435e+05
 -1.004294e+06
 -9.910330e+05
 -2.217112e+06
 -2.245713e+06
 2.221222e+06
 1.254360e+06
 -1.672139e+06
 2.207199e+06
 -1.831852e+06
 -1.788878e+06
 3.411077e+05
 4.321784e+05
 -1.310508e+06
 -6.475260e+04
 8.394701e+05
 7.817372e+05
 -6.026422e+05
 2.344656e+06
 1.798287e+06
 -1.830623e+06
 -1.809249e+06
 -2.369452e+06
 1.782886e+06
 6.194792e+05
 1.564966e+06
 -7.649984e+05
 -1.097216e+06
 -1.897826e+06
 -4.268567e+05
 1.047969e+06
 -1.061256e+06
 -3.802142e+05
 -1.904845e+06
 -8.853800e+05
 1.310388e+06
 1.656637e+06
 -2.103570e+06
 -6.021894e+05
 -1.943193e+05
 5.284584e+05
 -1.070987e+06
 -1.556120e+06
 -3.733462e+05
 -3.055943e+05
 -2.334646e+05
 1.602543e+06
 -1.772643e+05
 -4.655179e+05
 3.056828e+05
 6.493942e+05
 9.756991e+05
 -9.731442e+05
 -4.795904e+05
 -1.985550e+06
 -1.996882e+06
 1.972683e+06
 -2.172594e+06
 1.057137e+06
 1.917841e+06
 1.918640e+06
 -1.925811e+06
 -1.953799e+06
 -1.143707e+06
 -5.150167e+05
 7.239174e+05
 6.096290e+05
 -1.461604e+06
 2.041163e+06
 -2.088811e+06
 1.251180e+06
 -4.937070e+05
 2.081710e+06
 4.604641e+05
 -9.933854e+05
 2.793564e+05
 -2.844820e+05
 -1.634282e+06
 -1.894455e+06
 -1.928936e+06
 2.001989e+06
 -2.025342e+06
 7.772376e+04
 -2.168670e+06
 -5.446453e+04
 1.462012e+06
 1.551651e+06
 1.256167e+04
 -4.565188e+05
 1.049990e+06
 2.406216e+06
 -1.547037e+06
 1.520814e+06
 -2.376632e+06
 -1.049899e+06
 -8.182758e+05
 4.196357e+05
 -2.363117e+06
 2.362984e+06
 8.187874e+05
 -5.601904e+05
 1.658702e+06
 1.509063e+06
 -9.399157e+05
 -1.422447e+06
 1.855284e+06
 5.517783e+05
 1.024348e+06
 -8.870045e+05
 2.025036e+06
 -1.673451e+06
 3.692435e+05
 1.662843e+06
 -1.684981e+06
 1.663695e+06
 -1.354835e+06
 -6.631500e+04
 -1.671335e+06
 1.861939e+06
 -1.173445e+06
 1.391795e+06
 1.886063e+06
 -1.841404e+06
 1.139362e+06
 -8.338446e+05
 1.820032e+06
 -8.763691e+04
 9.793518e+05
 1.132184e+05
 -2.196521e+06
 -1.499998e+06
 -9.333154e+05
 -2.153462e+06
 4.325084e+05
 -1.189571e+06
 2.961519e+05
 1.301440e+05
 9.238591e+05
 -1.627887e+06
 9.380413e+05
 -1.775761e+06
 -3.655671e+05
 1.754840e+06
 -1.885113e+05
 3.671196e+05
 -6.009742e+05
 6.087472e+05
 2.229073e+06
 -2.252220e+06
 4.238281e+05
 -2.479729e+05
 1.285214e+06
 -1.194006e+06
 1.752557e+06
 -9.139041e+05
 -1.757988e+06
 1.247951e+06
 -1.778861e+06
 8.518922e+05
 -1.198477e+06
 -9.186673e+04
 -2.988645e+05
 1.904509e+05
 -4.735019e+04
 1.772229e+06
 1.464852e+06
 -1.574929e+06
 1.358691e+05
 -1.496276e+06
 6.188279e+05
 -1.971222e+06
 1.866404e+06
 -1.907371e+05
 2.114310e+05
 9.895056e+05
 1.956825e+06
 7.047220e+05
 1.503982e+06
 1.665566e+06
 2.017011e+06
 1.268234e+06
 -2.001650e+06
 -1.637302e+06
 -4.659925e+05
 1.699278e+06
 2.393120e+06
 -1.054624e+06
 -2.378099e+06
 3.363712e+04
 -1.358845e+06
 8.689904e+05
 -1.269016e+06
 -1.245385e+04
 -1.259072e+06
 -1.851938e+06
 1.254573e+06
 -4.816610e+05
 -9.721672e+05
 1.715101e+04
 9.707808e+05
 -1.453685e+06
 3.434425e+05
 7.750916e+05
 1.328169e+06
 -4.000927e+05
 2.604836e+05
 -2.389543e+06
 2.416820e+06
 -2.845150e+05
 -1.809789e+06
 1.297474e+06
 -2.212671e+06
 -1.416982e+06
 1.107875e+05
 8.863583e+05
 -2.381916e+06
 1.048949e+06
 -1.397876e+06
 -1.058972e+06
 1.386125e+06
 2.380928e+06
 2.221554e+06
 -9.685744e+05
 1.137607e+06
 1.526148e+06
 3.639434e+05
 -1.537927e+06
 -1.541265e+06
 -7.569658e+05
 7.632288e+05
 2.001993e+06
 6.902946e+05
 -3.021599e+05
 -2.014418e+06
 -2.026755e+06
 2.002857e+06
 -6.535943e+05
 1.652932e+06
 -1.214795e+04
 2.088180e+06
 1.934447e+05
 4.196357e+05
 2.092979e+06
 2.252607e+06
 8.446760e+05
 3.386977e+05
 -8.455874e+05
 2.277338e+05
 1.203580e+06
 -1.872721e+06
 9.587432e+05
 -2.064415e+06
 -2.387644e+05
 3.549825e+05
 -5.140727e+05
 1.631138e+06
 -1.233567e+06
 2.218994e+06
 1.534379e+06
 1.003000e+06
 -1.038274e+06
 2.217066e+06
 2.192988e+06
 1.633823e+06
 2.223669e+06
 -2.106706e+06
 -2.148143e+06
 -2.092247e+06
 -1.921781e+06
 -5.631861e+04
 2.072521e+06
 8.137412e+04
 1.162263e+06
 1.370977e+04
 -1.435855e+06
 1.962118e+06
 1.978948e+06
 4.857921e+05
 1.604555e+06
 -2.232852e+06
 6.977628e+05
 -1.636398e+06
 8.434491e+05
 -8.305140e+05
 2.387770e+06
 2.416630e+05
 2.022083e+06
 1.070489e+06
 -2.379917e+06
 -2.215523e+05
 -2.107443e+05
 -1.673114e+05
 -2.092910e+05
 9.528389e+05
 -1.281003e+06
 -6.436177e+05
 -2.893122e+05
 5.440009e+05
 1.257036e+06
 -1.416574e+06
 -2.093862e+06
 1.358218e+05
 -2.072297e+06
 -9.578744e+05
 9.306772e+05
 2.313315e+05
 1.684728e+04
 2.000350e+06
 -8.305171e+05
 5.187975e+05
 7.381285e+05
 -2.143348e+06
 -8.103704e+05
 6.778627e+05
 -6.539836e+05
 9.696913e+05
 -1.265988e+06
 -2.221576e+06
 -1.308916e+06
 2.217216e+06
 1.291594e+06
 1.099364e+06
 1.102165e+06
 -1.099535e+06
 -2.137385e+06
 2.126810e+06
 -1.474268e+06
 -1.302737e+06
 1.287687e+06
 1.143903e+06
 2.433677e+06
 6.202699e+05
 -8.048433e+05
 -2.383991e+06
 8.240400e+05
 2.521557e+05
 -5.374016e+05
 1.695272e+06
 -1.415337e+06
 -1.642184e+06
 -1.025453e+06
 -3.523902e+05
 -8.931021e+05
 1.445478e+06
 8.962954e+05
 -1.315868e+06
 7.069383e+05
 -2.136972e+06
 -7.314641e+05
 -3.112936e+05
 -1.464341e+06
 5.890965e+05
 -6.173404e+05
 -2.041772e+06
 1.099498e+06
 -1.678739e+06
 -2.412706e+06
 1.607047e+06
 -2.372684e+06
 2.423717e+06
 1.605825e+06
 2.441884e+06
 -1.630511e+06
 -2.345095e+05
 -1.617879e+06
 1.857478e+06