<?xml version="1.0"?>
<VTKFile type="UnstructuredGrid" version="0.1">
<UnstructuredGrid>
<FieldData>
<DataArray Name="TIME" type="Float64" format="ascii" NumberOfTuples="1">
0.000000e+00
</DataArray>
</FieldData>
<FieldData>
<DataArray Name="CYCLE" type="Int32" format="ascii" NumberOfTuples="1">
0
</DataArray>
</FieldData>
<Piece NumberOfPoints="81" NumberOfCells="144">
<Points>
<DataArray NumberOfComponents="3" type="Float64" format="ascii">
1.000000e+00 5.000000e-01 -0.000000e+00
1.000000e+00 5.000000e-01 1.000000e+00
1.000000e+00 1.000000e+00 5.000000e-01
1.000000e+00 5.000000e-01 5.000000e-01
1.000000e+00 7.500000e-01 7.500000e-01
1.000000e+00 7.500000e-01 2.500000e-01
1.000000e+00 0.000000e+00 5.000000e-01
1.000000e+00 2.500000e-01 2.500000e-01
1.000000e+00 2.500000e-01 7.500000e-01
1.000000e+00 0.000000e+00 1.000000e+00
1.000000e+00 0.000000e+00 7.500000e-01
1.000000e+00 2.500000e-01 1.000000e+00
1.000000e+00 1.000000e+00 -0.000000e+00
1.000000e+00 1.000000e+00 2.500000e-01
1.000000e+00 7.500000e-01 -0.000000e+00
1.000000e+00 0.000000e+00 -0.000000e+00
1.000000e+00 2.500000e-01 -0.000000e+00
1.000000e+00 0.000000e+00 2.500000e-01
1.000000e+00 1.000000e+00 1.000000e+00
1.000000e+00 7.500000e-01 1.000000e+00
1.000000e+00 1.000000e+00 7.500000e-01
5.000000e-01 0.000000e+00 1.000000e+00
0.000000e+00 5.000000e-01 1.000000e+00
5.000000e-01 1.000000e+00 1.000000e+00
2.500000e-01 2.500000e-01 1.000000e+00
2.500000e-01 7.500000e-01 1.000000e+00
5.000000e-01 5.000000e-01 1.000000e+00
7.500000e-01 7.500000e-01 1.000000e+00
7.500000e-01 2.500000e-01 1.000000e+00
0.000000e+00 1.000000e+00 1.000000e+00
0.000000e+00 7.500000e-01 1.000000e+00
2.500000e-01 1.000000e+00 1.000000e+00
0.000000e+00 0.000000e+00 1.000000e+00
2.500000e-01 0.000000e+00 1.000000e+00
0.000000e+00 2.500000e-01 1.000000e+00
7.500000e-01 1.000000e+00 1.000000e+00
7.500000e-01 0.000000e+00 1.000000e+00
5.000000e-01 1.000000e+00 -0.000000e+00
0.000000e+00 1.000000e+00 5.000000e-01
5.000000e-01 1.000000e+00 5.000000e-01
2.500000e-01 1.000000e+00 2.500000e-01
2.500000e-01 1.000000e+00 7.500000e-01
7.500000e-01 1.000000e+00 7.500000e-01
7.500000e-01 1.000000e+00 2.500000e-01
7.500000e-01 1.000000e+00 -0.000000e+00
0.000000e+00 1.000000e+00 7.500000e-01
0.000000e+00 1.000000e+00 -0.000000e+00
2.500000e-01 1.000000e+00 -0.000000e+00
0.000000e+00 1.000000e+00 2.500000e-01
0.000000e+00 5.000000e-01 -0.000000e+00
0.000000e+00 5.000000e-01 5.000000e-01
0.000000e+00 7.500000e-01 2.500000e-01
0.000000e+00 7.500000e-01 7.500000e-01
0.000000e+00 0.000000e+00 5.000000e-01
0.000000e+00 2.500000e-01 7.500000e-01
0.000000e+00 2.500000e-01 2.500000e-01
0.000000e+00 0.000000e+00 -0.000000e+00
0.000000e+00 0.000000e+00 2.500000e-01
0.000000e+00 2.500000e-01 -0.000000e+00
0.000000e+00 0.000000e+00 7.500000e-01
0.000000e+00 7.500000e-01 -0.000000e+00
5.000000e-01 0.000000e+00 -0.000000e+00
5.000000e-01 0.000000e+00 5.000000e-01
2.500000e-01 0.000000e+00 2.500000e-01
2.500000e-01 0.000000e+00 7.500000e-01
7.500000e-01 0.000000e+00 7.500000e-01
7.500000e-01 0.000000e+00 2.500000e-01
7.500000e-01 0.000000e+00 -0.000000e+00
2.500000e-01 0.000000e+00 -0.000000e+00
5.000000e-01 5.000000e-01 -0.000000e+00
2.500000e-01 7.500000e-01 -0.000000e+00
2.500000e-01 2.500000e-01 -0.000000e+00
7.500000e-01 2.500000e-01 -0.000000e+00
7.500000e-01 7.500000e-01 -0.000000e+00
2.500000e-01 2.500000e-01 5.000000e-01
2.500000e-01 5.000000e-01 7.500000e-01
2.500000e-01 5.000000e-01 2.500000e-01
5.000000e-01 5.000000e-01 5.000000e-01
7.500000e-01 5.000000e-01 7.500000e-01
7.500000e-01 5.000000e-01 2.500000e-01
7.500000e-01 7.500000e-01 5.000000e-01
</DataArray>
</Points>
<Cells>
<DataArray Name="connectivity" type="Int32" format="ascii">
1 3 4
4 5 2
3 0 5
5 4 3
0 3 7
7 8 6
3 1 8
8 7 3
12 13 14
14 5 0
13 2 5
5 14 13
0 7 16
16 17 15
7 6 17
17 16 7
61 69 72
72 73 0
69 37 73
73 72 69
12 14 44
44 73 37
14 0 73
73 44 14
0 16 72
72 67 61
16 15 67
67 72 16
6 8 10
10 11 9
8 1 11
11 10 8
18 19 20
20 4 2
19 1 4
4 20 19
23 26 27
27 28 1
26 21 28
28 27 26
23 27 35
35 19 18
27 1 19
19 35 27
1 28 11
11 36 9
28 21 36
36 11 28
37 39 43
43 42 2
39 23 42
42 43 39
12 44 13
13 43 2
44 37 43
43 13 44
2 42 20
20 35 18
42 23 35
35 20 42
6 65 66
66 62 61
65 21 62
62 66 65
15 17 67
67 66 61
17 6 66
66 67 17
9 36 10
10 65 6
36 21 65
65 10 36
22 24 25
25 26 23
24 21 26
26 25 24
32 33 34
34 24 22
33 21 24
24 34 33
61 62 63
63 64 53
62 21 64
64 63 62
53 64 59
59 33 32
64 21 33
33 59 64
29 30 31
31 25 23
30 22 25
25 31 30
49 50 51
51 52 38
50 22 52
52 51 50
22 50 54
54 55 53
50 49 55
55 54 50
53 59 54
54 34 22
59 32 34
34 54 59
22 30 52
52 45 38
30 29 45
45 52 30
23 39 41
41 40 38
39 37 40
40 41 39
38 45 41
41 31 23
45 29 31
31 41 45
37 47 40
40 48 38
47 46 48
48 40 47
37 69 70
70 71 49
69 61 71
71 70 69
37 70 47
47 60 46
70 49 60
60 47 70
49 51 60
60 48 46
51 38 48
48 60 51
56 57 58
58 55 49
57 53 55
55 58 57
49 71 58
58 68 56
71 61 68
68 58 71
61 63 68
68 57 56
63 53 57
57 68 63
</DataArray>
<DataArray Name="offsets" type="Int32" format="ascii">
3
6
9
12
15
18
21
24
27
30
33
36
39
42
45
48
51
54
57
60
63
66
69
72
75
78
81
84
87
90
93
96
99
102
105
108
111
114
117
120
123
126
129
132
135
138
141
144
147
150
153
156
159
162
165
168
171
174
177
180
183
186
189
192
195
198
201
204
207
210
213
216
219
222
225
228
231
234
237
240
243
246
249
252
255
258
261
264
267
270
273
276
279
282
285
288
291
294
297
300
303
306
309
312
315
318
321
324
327
330
333
336
339
342
345
348
351
354
357
360
363
366
369
372
375
378
381
384
387
390
393
396
399
402
405
408
411
414
417
420
423
426
429
432
</DataArray>
<DataArray Name="types" type="UInt8" format="ascii">
5
5
5
5
5
5
5
5
5
5
5
5
5
5
5
5
5
5
5
5
5
5
5
5
5
5
5
5
5
5
5
5
5
5
5
5
5
5
5
5
5
5
5
5
5
5
5
5
5
5
5
5
5
5
5
5
5
5
5
5
5
5
5
5
5
5
5
5
5
5
5
5
5
5
5
5
5
5
5
5
5
5
5
5
5
5
5
5
5
5
5
5
5
5
5
5
5
5
5
5
5
5
5
5
5
5
5
5
5
5
5
5
5
5
5
5
5
5
5
5
5
5
5
5
5
5
5
5
5
5
5
5
5
5
5
5
5
5
5
5
5
5
5
5
</DataArray>
</Cells>
<CellData>
<DataArray Name="data" type="Float64" NumberOfComponents="9" format="ascii">
1.100000e+01 2.100000e+01 3.100000e+01 1.200000e+01 2.200000e+01 3.200000e+01 1.300000e+01 2.300000e+01 3.300000e+01
1.100000e+01 2.100000e+01 3.100000e+01 1.200000e+01 2.200000e+01 3.200000e+01 1.300000e+01 2.300000e+01 3.300000e+01
1.100000e+01 2.100000e+01 3.100000e+01 1.200000e+01 2.200000e+01 3.200000e+01 1.300000e+01 2.300000e+01 3.300000e+01
1.100000e+01 2.100000e+01 3.100000e+01 1.200000e+01 2.200000e+01 3.200000e+01 1.300000e+01 2.300000e+01 3.300000e+01
1.100000e+01 2.100000e+01 3.100000e+01 1.200000e+01 2.200000e+01 3.200000e+01 1.300000e+01 2.300000e+01 3.300000e+01
1.100000e+01 2.100000e+01 3.100000e+01 1.200000e+01 2.200000e+01 3.200000e+01 1.300000e+01 2.300000e+01 3.300000e+01
1.100000e+01 2.100000e+01 3.100000e+01 1.200000e+01 2.200000e+01 3.200000e+01 1.300000e+01 2.300000e+01 3.300000e+01
1.100000e+01 2.100000e+01 3.100000e+01 1.200000e+01 2.200000e+01 3.200000e+01 1.300000e+01 2.300000e+01 3.300000e+01
1.100000e+01 2.100000e+01 3.100000e+01 1.200000e+01 2.200000e+01 3.200000e+01 1.300000e+01 2.300000e+01 3.300000e+01
1.100000e+01 2.100000e+01 3.100000e+01 1.200000e+01 2.200000e+01 3.200000e+01 1.300000e+01 2.300000e+01 3.300000e+01
1.100000e+01 2.100000e+01 3.100000e+01 1.200000e+01 2.200000e+01 3.200000e+01 1.300000e+01 2.300000e+01 3.300000e+01
1.100000e+01 2.100000e+01 3.100000e+01 1.200000e+01 2.200000e+01 3.200000e+01 1.300000e+01 2.300000e+01 3.300000e+01
1.100000e+01 2.100000e+01 3.100000e+01 1.200000e+01 2.200000e+01 3.200000e+01 1.300000e+01 2.300000e+01 3.300000e+01
1.100000e+01 2.100000e+01 3.100000e+01 1.200000e+01 2.200000e+01 3.200000e+01 1.300000e+01 2.300000e+01 3.300000e+01
1.100000e+01 2.100000e+01 3.100000e+01 1.200000e+01 2.200000e+01 3.200000e+01 1.300000e+01 2.300000e+01 3.300000e+01
1.100000e+01 2.100000e+01 3.100000e+01 1.200000e+01 2.200000e+01 3.200000e+01 1.300000e+01 2.300000e+01 3.300000e+01
6.003669e+00 1.146155e+01 1.691943e+01 6.549457e+00 1.200734e+01 1.746522e+01 7.095245e+00 1.255313e+01 1.801101e+01
9.992661e+00 1.907690e+01 2.816114e+01 1.090109e+01 1.998532e+01 2.906956e+01 1.180951e+01 2.089375e+01 2.997799e+01
6.003669e+00 1.146155e+01 1.691943e+01 6.549457e+00 1.200734e+01 1.746522e+01 7.095245e+00 1.255313e+01 1.801101e+01
7.333333e+00 1.400000e+01 2.066667e+01 8.000000e+00 1.466667e+01 2.133333e+01 8.666667e+00 1.533333e+01 2.200000e+01
1.049633e+01 2.003845e+01 2.958057e+01 1.145054e+01 2.099266e+01 3.053478e+01 1.240475e+01 2.194687e+01 3.148899e+01
6.507339e+00 1.242310e+01 1.833886e+01 7.098915e+00 1.301468e+01 1.893044e+01 7.690491e+00 1.360625e+01 1.952201e+01
1.049633e+01 2.003845e+01 2.958057e+01 1.145054e+01 2.099266e+01 3.053478e+01 1.240475e+01 2.194687e+01 3.148899e+01
9.166667e+00 1.750000e+01 2.583333e+01 1.000000e+01 1.833333e+01 2.666667e+01 1.083333e+01 1.916667e+01 2.750000e+01
1.049633e+01 2.003845e+01 2.958057e+01 1.145054e+01 2.099266e+01 3.053478e+01 1.240475e+01 2.194687e+01 3.148899e+01
6.507339e+00 1.242310e+01 1.833886e+01 7.098915e+00 1.301468e+01 1.893044e+01 7.690491e+00 1.360625e+01 1.952201e+01
1.049633e+01 2.003845e+01 2.958057e+01 1.145054e+01 2.099266e+01 3.053478e+01 1.240475e+01 2.194687e+01 3.148899e+01
9.166667e+00 1.750000e+01 2.583333e+01 1.000000e+01 1.833333e+01 2.666667e+01 1.083333e+01 1.916667e+01 2.750000e+01
1.100000e+01 2.100000e+01 3.100000e+01 1.200000e+01 2.200000e+01 3.200000e+01 1.300000e+01 2.300000e+01 3.300000e+01
1.100000e+01 2.100000e+01 3.100000e+01 1.200000e+01 2.200000e+01 3.200000e+01 1.300000e+01 2.300000e+01 3.300000e+01
1.100000e+01 2.100000e+01 3.100000e+01 1.200000e+01 2.200000e+01 3.200000e+01 1.300000e+01 2.300000e+01 3.300000e+01
1.100000e+01 2.100000e+01 3.100000e+01 1.200000e+01 2.200000e+01 3.200000e+01 1.300000e+01 2.300000e+01 3.300000e+01
1.100000e+01 2.100000e+01 3.100000e+01 1.200000e+01 2.200000e+01 3.200000e+01 1.300000e+01 2.300000e+01 3.300000e+01
1.100000e+01 2.100000e+01 3.100000e+01 1.200000e+01 2.200000e+01 3.200000e+01 1.300000e+01 2.300000e+01 3.300000e+01
1.100000e+01 2.100000e+01 3.100000e+01 1.200000e+01 2.200000e+01 3.200000e+01 1.300000e+01 2.300000e+01 3.300000e+01
1.100000e+01 2.100000e+01 3.100000e+01 1.200000e+01 2.200000e+01 3.200000e+01 1.300000e+01 2.300000e+01 3.300000e+01
6.003669e+00 1.146155e+01 1.691943e+01 6.549457e+00 1.200734e+01 1.746522e+01 7.095245e+00 1.255313e+01 1.801101e+01
9.992661e+00 1.907690e+01 2.816114e+01 1.090109e+01 1.998532e+01 2.906956e+01 1.180951e+01 2.089375e+01 2.997799e+01
6.003669e+00 1.146155e+01 1.691943e+01 6.549457e+00 1.200734e+01 1.746522e+01 7.095245e+00 1.255313e+01 1.801101e+01
7.333333e+00 1.400000e+01 2.066667e+01 8.000000e+00 1.466667e+01 2.133333e+01 8.666667e+00 1.533333e+01 2.200000e+01
6.507339e+00 1.242310e+01 1.833886e+01 7.098915e+00 1.301468e+01 1.893044e+01 7.690491e+00 1.360625e+01 1.952201e+01
1.049633e+01 2.003845e+01 2.958057e+01 1.145054e+01 2.099266e+01 3.053478e+01 1.240475e+01 2.194687e+01 3.148899e+01
1.049633e+01 2.003845e+01 2.958057e+01 1.145054e+01 2.099266e+01 3.053478e+01 1.240475e+01 2.194687e+01 3.148899e+01
9.166667e+00 1.750000e+01 2.583333e+01 1.000000e+01 1.833333e+01 2.666667e+01 1.083333e+01 1.916667e+01 2.750000e+01
1.049633e+01 2.003845e+01 2.958057e+01 1.145054e+01 2.099266e+01 3.053478e+01 1.240475e+01 2.194687e+01 3.148899e+01
1.049633e+01 2.003845e+01 2.958057e+01 1.145054e+01 2.099266e+01 3.053478e+01 1.240475e+01 2.194687e+01 3.148899e+01
6.507339e+00 1.242310e+01 1.833886e+01 7.098915e+00 1.301468e+01 1.893044e+01 7.690491e+00 1.360625e+01 1.952201e+01
9.166667e+00 1.750000e+01 2.583333e+01 1.000000e+01 1.833333e+01 2.666667e+01 1.083333e+01 1.916667e+01 2.750000e+01
6.003669e+00 1.146155e+01 1.691943e+01 6.549457e+00 1.200734e+01 1.746522e+01 7.095245e+00 1.255313e+01 1.801101e+01
9.992661e+00 1.907690e+01 2.816114e+01 1.090109e+01 1.998532e+01 2.906956e+01 1.180951e+01 2.089375e+01 2.997799e+01
6.003669e+00 1.146155e+01 1.691943e+01 6.549457e+00 1.200734e+01 1.746522e+01 7.095245e+00 1.255313e+01 1.801101e+01
7.333333e+00 1.400000e+01 2.066667e+01 8.000000e+00 1.466667e+01 2.133333e+01 8.666667e+00 1.533333e+01 2.200000e+01
1.049633e+01 2.003845e+01 2.958057e+01 1.145054e+01 2.099266e+01 3.053478e+01 1.240475e+01 2.194687e+01 3.148899e+01
1.049633e+01 2.003845e+01 2.958057e+01 1.145054e+01 2.099266e+01 3.053478e+01 1.240475e+01 2.194687e+01 3.148899e+01
6.507339e+00 1.242310e+01 1.833886e+01 7.098915e+00 1.301468e+01 1.893044e+01 7.690491e+00 1.360625e+01 1.952201e+01
9.166667e+00 1.750000e+01 2.583333e+01 1.000000e+01 1.833333e+01 2.666667e+01 1.083333e+01 1.916667e+01 2.750000e+01
1.049633e+01 2.003845e+01 2.958057e+01 1.145054e+01 2.099266e+01 3.053478e+01 1.240475e+01 2.194687e+01 3.148899e+01
1.049633e+01 2.003845e+01 2.958057e+01 1.145054e+01 2.099266e+01 3.053478e+01 1.240475e+01 2.194687e+01 3.148899e+01
6.507339e+00 1.242310e+01 1.833886e+01 7.098915e+00 1.301468e+01 1.893044e+01 7.690491e+00 1.360625e+01 1.952201e+01
9.166667e+00 1.750000e+01 2.583333e+01 1.000000e+01 1.833333e+01 2.666667e+01 1.083333e+01 1.916667e+01 2.750000e+01
9.992661e+00 1.907690e+01 2.816114e+01 1.090109e+01 1.998532e+01 2.906956e+01 1.180951e+01 2.089375e+01 2.997799e+01
6.003669e+00 1.146155e+01 1.691943e+01 6.549457e+00 1.200734e+01 1.746522e+01 7.095245e+00 1.255313e+01 1.801101e+01
6.003669e+00 1.146155e+01 1.691943e+01 6.549457e+00 1.200734e+01 1.746522e+01 7.095245e+00 1.255313e+01 1.801101e+01
7.333333e+00 1.400000e+01 2.066667e+01 8.000000e+00 1.466667e+01 2.133333e+01 8.666667e+00 1.533333e+01 2.200000e+01
1.049633e+01 2.003845e+01 2.958057e+01 1.145054e+01 2.099266e+01 3.053478e+01 1.240475e+01 2.194687e+01 3.148899e+01
6.507339e+00 1.242310e+01 1.833886e+01 7.098915e+00 1.301468e+01 1.893044e+01 7.690491e+00 1.360625e+01 1.952201e+01
1.049633e+01 2.003845e+01 2.958057e+01 1.145054e+01 2.099266e+01 3.053478e+01 1.240475e+01 2.194687e+01 3.148899e+01
9.166667e+00 1.750000e+01 2.583333e+01 1.000000e+01 1.833333e+01 2.666667e+01 1.083333e+01 1.916667e+01 2.750000e+01
1.049633e+01 2.003845e+01 2.958057e+01 1.145054e+01 2.099266e+01 3.053478e+01 1.240475e+01 2.194687e+01 3.148899e+01
1.049633e+01 2.003845e+01 2.958057e+01 1.145054e+01 2.099266e+01 3.053478e+01 1.240475e+01 2.194687e+01 3.148899e+01
6.507339e+00 1.242310e+01 1.833886e+01 7.098915e+00 1.301468e+01 1.893044e+01 7.690491e+00 1.360625e+01 1.952201e+01
9.166667e+00 1.750000e+01 2.583333e+01 1.000000e+01 1.833333e+01 2.666667e+01 1.083333e+01 1.916667e+01 2.750000e+01
1.007338e+00 1.923100e+00 2.838863e+00 1.098915e+00 2.014677e+00 2.930439e+00 1.190491e+00 2.106253e+00 3.022015e+00
4.996331e+00 9.538449e+00 1.408057e+01 5.450543e+00 9.992661e+00 1.453478e+01 5.904755e+00 1.044687e+01 1.498899e+01
4.996331e+00 9.538449e+00 1.408057e+01 5.450543e+00 9.992661e+00 1.453478e+01 5.904755e+00 1.044687e+01 1.498899e+01
3.666667e+00 7.000000e+00 1.033333e+01 4.000000e+00 7.333333e+00 1.066667e+01 4.333333e+00 7.666667e+00 1.100000e+01
5.036692e-01 9.615502e-01 1.419431e+00 5.494573e-01 1.007338e+00 1.465219e+00 5.952454e-01 1.053126e+00 1.511008e+00
5.036692e-01 9.615502e-01 1.419431e+00 5.494573e-01 1.007338e+00 1.465219e+00 5.952454e-01 1.053126e+00 1.511008e+00
4.492661e+00 8.576900e+00 1.266114e+01 4.901085e+00 8.985323e+00 1.306956e+01 5.309509e+00 9.393747e+00 1.347799e+01
1.833333e+00 3.500000e+00 5.166667e+00 2.000000e+00 3.666667e+00 5.333333e+00 2.166667e+00 3.833333e+00 5.500000e+00
4.996331e+00 9.538449e+00 1.408057e+01 5.450543e+00 9.992661e+00 1.453478e+01 5.904755e+00 1.044687e+01 1.498899e+01
1.007338e+00 1.923100e+00 2.838863e+00 1.098915e+00 2.014677e+00 2.930439e+00 1.190491e+00 2.106253e+00 3.022015e+00
4.996331e+00 9.538449e+00 1.408057e+01 5.450543e+00 9.992661e+00 1.453478e+01 5.904755e+00 1.044687e+01 1.498899e+01
3.666667e+00 7.000000e+00 1.033333e+01 4.000000e+00 7.333333e+00 1.066667e+01 4.333333e+00 7.666667e+00 1.100000e+01
5.036692e-01 9.615502e-01 1.419431e+00 5.494573e-01 1.007338e+00 1.465219e+00 5.952454e-01 1.053126e+00 1.511008e+00
5.036692e-01 9.615502e-01 1.419431e+00 5.494573e-01 1.007338e+00 1.465219e+00 5.952454e-01 1.053126e+00 1.511008e+00
4.492661e+00 8.576900e+00 1.266114e+01 4.901085e+00 8.985323e+00 1.306956e+01 5.309509e+00 9.393747e+00 1.347799e+01
1.833333e+00 3.500000e+00 5.166667e+00 2.000000e+00 3.666667e+00 5.333333e+00 2.166667e+00 3.833333e+00 5.500000e+00
5.036692e-01 9.615502e-01 1.419431e+00 5.494573e-01 1.007338e+00 1.465219e+00 5.952454e-01 1.053126e+00 1.511008e+00
4.492661e+00 8.576900e+00 1.266114e+01 4.901085e+00 8.985323e+00 1.306956e+01 5.309509e+00 9.393747e+00 1.347799e+01
5.036692e-01 9.615502e-01 1.419431e+00 5.494573e-01 1.007338e+00 1.465219e+00 5.952454e-01 1.053126e+00 1.511008e+00
1.833333e+00 3.500000e+00 5.166667e+00 2.000000e+00 3.666667e+00 5.333333e+00 2.166667e+00 3.833333e+00 5.500000e+00
0.000000e+00 0.000000e+00 0.000000e+00 0.000000e+00 0.000000e+00 0.000000e+00 0.000000e+00 0.000000e+00 0.000000e+00
0.000000e+00 0.000000e+00 0.000000e+00 0.000000e+00 0.000000e+00 0.000000e+00 0.000000e+00 0.000000e+00 0.000000e+00
0.000000e+00 0.000000e+00 0.000000e+00 0.000000e+00 0.000000e+00 0.000000e+00 0.000000e+00 0.000000e+00 0.000000e+00
0.000000e+00 0.000000e+00 0.000000e+00 0.000000e+00 0.000000e+00 0.000000e+00 0.000000e+00 0.000000e+00 0.000000e+00
0.000000e+00 0.000000e+00 0.000000e+00 0.000000e+00 0.000000e+00 0.000000e+00 0.000000e+00 0.000000e+00 0.000000e+00
0.000000e+00 0.000000e+00 0.000000e+00 0.000000e+00 0.000000e+00 0.000000e+00 0.000000e+00 0.000000e+00 0.000000e+00
0.000000e+00 0.000000e+00 0.000000e+00 0.000000e+00 0.000000e+00 0.000000e+00 0.000000e+00 0.000000e+00 0.000000e+00
0.000000e+00 0.000000e+00 0.000000e+00 0.000000e+00 0.000000e+00 0.000000e+00 0.000000e+00 0.000000e+00 0.000000e+00
0.000000e+00 0.000000e+00 0.000000e+00 0.000000e+00 0.000000e+00 0.000000e+00 0.000000e+00 0.000000e+00 0.000000e+00
0.000000e+00 0.000000e+00 0.000000e+00 0.000000e+00 0.000000e+00 0.000000e+00 0.000000e+00 0.000000e+00 0.000000e+00
0.000000e+00 0.000000e+00 0.000000e+00 0.000000e+00 0.000000e+00 0.000000e+00 0.000000e+00 0.000000e+00 0.000000e+00
0.000000e+00 0.000000e+00 0.000000e+00 0.000000e+00 0.000000e+00 0.000000e+00 0.000000e+00 0.000000e+00 0.000000e+00
0.000000e+00 0.000000e+00 0.000000e+00 0.000000e+00 0.000000e+00 0.000000e+00 0.000000e+00 0.000000e+00 0.000000e+00
0.000000e+00 0.000000e+00 0.000000e+00 0.000000e+00 0.000000e+00 0.000000e+00 0.000000e+00 0.000000e+00 0.000000e+00
0.000000e+00 0.000000e+00 0.000000e+00 0.000000e+00 0.000000e+00 0.000000e+00 0.000000e+00 0.000000e+00 0.000000e+00
0.000000e+00 0.000000e+00 0.000000e+00 0.000000e+00 0.000000e+00 0.000000e+00 0.000000e+00 0.000000e+00 0.000000e+00
4.996331e+00 9.538449e+00 1.408057e+01 5.450543e+00 9.992661e+00 1.453478e+01 5.904755e+00 1.044687e+01 1.498899e+01
1.007338e+00 1.923100e+00 2.838863e+00 1.098915e+00 2.014677e+00 2.930439e+00 1.190491e+00 2.106253e+00 3.022015e+00
4.996331e+00 9.538449e+00 1.408057e+01 5.450543e+00 9.992661e+00 1.453478e+01 5.904755e+00 1.044687e+01 1.498899e+01
3.666667e+00 7.000000e+00 1.033333e+01 4.000000e+00 7.333333e+00 1.066667e+01 4.333333e+00 7.666667e+00 1.100000e+01
5.036692e-01 9.615502e-01 1.419431e+00 5.494573e-01 1.007338e+00 1.465219e+00 5.952454e-01 1.053126e+00 1.511008e+00
4.492661e+00 8.576900e+00 1.266114e+01 4.901085e+00 8.985323e+00 1.306956e+01 5.309509e+00 9.393747e+00 1.347799e+01
5.036692e-01 9.615502e-01 1.419431e+00 5.494573e-01 1.007338e+00 1.465219e+00 5.952454e-01 1.053126e+00 1.511008e+00
1.833333e+00 3.500000e+00 5.166667e+00 2.000000e+00 3.666667e+00 5.333333e+00 2.166667e+00 3.833333e+00 5.500000e+00
4.492661e+00 8.576900e+00 1.266114e+01 4.901085e+00 8.985323e+00 1.306956e+01 5.309509e+00 9.393747e+00 1.347799e+01
5.036692e-01 9.615502e-01 1.419431e+00 5.494573e-01 1.007338e+00 1.465219e+00 5.952454e-01 1.053126e+00 1.511008e+00
5.036692e-01 9.615502e-01 1.419431e+00 5.494573e-01 1.007338e+00 1.465219e+00 5.952454e-01 1.053126e+00 1.511008e+00
1.833333e+00 3.500000e+00 5.166667e+00 2.000000e+00 3.666667e+00 5.333333e+00 2.166667e+00 3.833333e+00 5.500000e+00
4.996331e+00 9.538449e+00 1.408057e+01 5.450543e+00 9.992661e+00 1.453478e+01 5.904755e+00 1.044687e+01 1.498899e+01
1.007338e+00 1.923100e+00 2.838863e+00 1.098915e+00 2.014677e+00 2.930439e+00 1.190491e+00 2.106253e+00 3.022015e+00
4.996331e+00 9.538449e+00 1.408057e+01 5.450543e+00 9.992661e+00 1.453478e+01 5.904755e+00 1.044687e+01 1.498899e+01
3.666667e+00 7.000000e+00 1.033333e+01 4.000000e+00 7.333333e+00 1.066667e+01 4.333333e+00 7.666667e+00 1.100000e+01
4.492661e+00 8.576900e+00 1.266114e+01 4.901085e+00 8.985323e+00 1.306956e+01 5.309509e+00 9.393747e+00 1.347799e+01
5.036692e-01 9.615502e-01 1.419431e+00 5.494573e-01 1.007338e+00 1.465219e+00 5.952454e-01 1.053126e+00 1.511008e+00
5.036692e-01 9.615502e-01 1.419431e+00 5.494573e-01 1.007338e+00 1.465219e+00 5.952454e-01 1.053126e+00 1.511008e+00
1.833333e+00 3.500000e+00 5.166667e+00 2.000000e+00 3.666667e+00 5.333333e+00 2.166667e+00 3.833333e+00 5.500000e+00
0.000000e+00 0.000000e+00 0.000000e+00 0.000000e+00 0.000000e+00 0.000000e+00 0.000000e+00 0.000000e+00 0.000000e+00
0.000000e+00 0.000000e+00 0.000000e+00 0.000000e+00 0.000000e+00 0.000000e+00 0.000000e+00 0.000000e+00 0.000000e+00
0.000000e+00 0.000000e+00 0.000000e+00 0.000000e+00 0.000000e+00 0.000000e+00 0.000000e+00 0.000000e+00 0.000000e+00
0.000000e+00 0.000000e+00 0.000000e+00 0.000000e+00 0.000000e+00 0.000000e+00 0.000000e+00 0.000000e+00 0.000000e+00
0.000000e+00 0.000000e+00 0.000000e+00 0.000000e+00 0.000000e+00 0.000000e+00 0.000000e+00 0.000000e+00 0.000000e+00
0.000000e+00 0.000000e+00 0.000000e+00 0.000000e+00 0.000000e+00 0.000000e+00 0.000000e+00 0.000000e+00 0.000000e+00
0.000000e+00 0.000000e+00 0.000000e+00 0.000000e+00 0.000000e+00 0.000000e+00 0.000000e+00 0.000000e+00 0.000000e+00
0.000000e+00 0.000000e+00 0.000000e+00 0.000000e+00 0.000000e+00 0.000000e+00 0.000000e+00 0.000000e+00 0.000000e+00
5.036692e-01 9.615502e-01 1.419431e+00 5.494573e-01 1.007338e+00 1.465219e+00 5.952454e-01 1.053126e+00 1.511008e+00
5.036692e-01 9.615502e-01 1.419431e+00 5.494573e-01 1.007338e+00 1.465219e+00 5.952454e-01 1.053126e+00 1.511008e+00
4.492661e+00 8.576900e+00 1.266114e+01 4.901085e+00 8.985323e+00 1.306956e+01 5.309509e+00 9.393747e+00 1.347799e+01
1.833333e+00 3.500000e+00 5.166667e+00 2.000000e+00 3.666667e+00 5.333333e+00 2.166667e+00 3.833333e+00 5.500000e+00
4.492661e+00 8.576900e+00 1.266114e+01 4.901085e+00 8.985323e+00 1.306956e+01 5.309509e+00 9.393747e+00 1.347799e+01
5.036692e-01 9.615502e-01 1.419431e+00 5.494573e-01 1.007338e+00 1.465219e+00 5.952454e-01 1.053126e+00 1.511008e+00
5.036692e-01 9.615502e-01 1.419431e+00 5.494573e-01 1.007338e+00 1.465219e+00 5.952454e-01 1.053126e+00 1.511008e+00
1.833333e+00 3.500000e+00 5.166667e+00 2.000000e+00 3.666667e+00 5.333333e+00 2.166667e+00 3.833333e+00 5.500000e+00
</DataArray>
<DataArray Name="mesh_vars/FaceElements_Color" type="Float64" NumberOfComponents="1" format="ascii">
0.000000e+00
0.000000e+00
0.000000e+00
0.000000e+00
1.000000e+00
1.000000e+00
1.000000e+00
1.000000e+00
2.000000e+00
2.000000e+00
2.000000e+00
2.000000e+00
3.000000e+00
3.000000e+00
3.000000e+00
3.000000e+00
4.000000e+00
4.000000e+00
4.000000e+00
4.000000e+00
5.000000e+00
5.000000e+00
5.000000e+00
5.000000e+00
6.000000e+00
6.000000e+00
6.000000e+00
6.000000e+00
2.000000e+00
2.000000e+00
2.000000e+00
2.000000e+00
3.000000e+00
3.000000e+00
3.000000e+00
3.000000e+00
4.000000e+00
4.000000e+00
4.000000e+00
4.000000e+00
5.000000e+00
5.000000e+00
5.000000e+00
5.000000e+00
6.000000e+00
6.000000e+00
6.000000e+00
6.000000e+00
1.000000e+00
1.000000e+00
1.000000e+00
1.000000e+00
6.000000e+00
6.000000e+00
6.000000e+00
6.000000e+00
7.000000e+00
7.000000e+00
7.000000e+00
7.000000e+00
0.000000e+00
0.000000e+00
0.000000e+00
0.000000e+00
5.000000e+00
5.000000e+00
5.000000e+00
5.000000e+00
7.000000e+00
7.000000e+00
7.000000e+00
7.000000e+00
2.000000e+00
2.000000e+00
2.000000e+00
2.000000e+00
1.000000e+00
1.000000e+00
1.000000e+00
1.000000e+00
3.000000e+00
3.000000e+00
3.000000e+00
3.000000e+00
5.000000e+00
5.000000e+00
5.000000e+00
5.000000e+00
0.000000e+00
0.000000e+00
0.000000e+00
0.000000e+00
3.000000e+00
3.000000e+00
3.000000e+00
3.000000e+00
4.000000e+00
4.000000e+00
4.000000e+00
4.000000e+00
6.000000e+00
6.000000e+00
6.000000e+00
6.000000e+00
5.000000e+00
5.000000e+00
5.000000e+00
5.000000e+00
8.000000e+00
8.000000e+00
8.000000e+00
8.000000e+00
6.000000e+00
6.000000e+00
6.000000e+00
6.000000e+00
0.000000e+00
0.000000e+00
0.000000e+00
0.000000e+00
2.000000e+00
2.000000e+00
2.000000e+00
2.000000e+00
7.000000e+00
7.000000e+00
7.000000e+00
7.000000e+00
1.000000e+00
1.000000e+00
1.000000e+00
1.000000e+00
0.000000e+00
0.000000e+00
0.000000e+00
0.000000e+00
8.000000e+00
8.000000e+00
8.000000e+00
8.000000e+00
1.000000e+00
1.000000e+00
1.000000e+00
1.000000e+00
</DataArray>
<DataArray Name="mesh_vars/FaceElements_Id" type="Float64" NumberOfComponents="1" format="ascii">
2.400000e+01
2.400000e+01
2.400000e+01
2.400000e+01
2.500000e+01
2.500000e+01
2.500000e+01
2.500000e+01
2.700000e+01
2.700000e+01
2.700000e+01
2.700000e+01
2.800000e+01
2.800000e+01
2.800000e+01
2.800000e+01
5.500000e+01
5.500000e+01
5.500000e+01
5.500000e+01
5.700000e+01
5.700000e+01
5.700000e+01
5.700000e+01
5.900000e+01
5.900000e+01
5.900000e+01
5.900000e+01
2.600000e+01
2.600000e+01
2.600000e+01
2.600000e+01
2.900000e+01
2.900000e+01
2.900000e+01
2.900000e+01
3.100000e+01
3.100000e+01
3.100000e+01
3.100000e+01
3.400000e+01
3.400000e+01
3.400000e+01
3.400000e+01
3.500000e+01
3.500000e+01
3.500000e+01
3.500000e+01
3.700000e+01
3.700000e+01
3.700000e+01
3.700000e+01
3.800000e+01
3.800000e+01
3.800000e+01
3.800000e+01
3.900000e+01
3.900000e+01
3.900000e+01
3.900000e+01
4.900000e+01
4.900000e+01
4.900000e+01
4.900000e+01
5.100000e+01
5.100000e+01
5.100000e+01
5.100000e+01
5.200000e+01
5.200000e+01
5.200000e+01
5.200000e+01
3.000000e+01
3.000000e+01
3.000000e+01
3.000000e+01
3.300000e+01
3.300000e+01
3.300000e+01
3.300000e+01
4.800000e+01
4.800000e+01
4.800000e+01
4.800000e+01
5.000000e+01
5.000000e+01
5.000000e+01
5.000000e+01
3.200000e+01
3.200000e+01
3.200000e+01
3.200000e+01
4.200000e+01
4.200000e+01
4.200000e+01
4.200000e+01
4.300000e+01
4.300000e+01
4.300000e+01
4.300000e+01
4.500000e+01
4.500000e+01
4.500000e+01
4.500000e+01
4.700000e+01
4.700000e+01
4.700000e+01
4.700000e+01
3.600000e+01
3.600000e+01
3.600000e+01
3.600000e+01
4.000000e+01
4.000000e+01
4.000000e+01
4.000000e+01
4.100000e+01
4.100000e+01
4.100000e+01
4.100000e+01
5.400000e+01
5.400000e+01
5.400000e+01
5.400000e+01
5.600000e+01
5.600000e+01
5.600000e+01
5.600000e+01
4.600000e+01
4.600000e+01
4.600000e+01
4.600000e+01
4.400000e+01
4.400000e+01
4.400000e+01
4.400000e+01
5.800000e+01
5.800000e+01
5.800000e+01
5.800000e+01
5.300000e+01
5.300000e+01
5.300000e+01
5.300000e+01
</DataArray>
<DataArray Name="mesh_vars/FaceElements_Owner" type="Float64" NumberOfComponents="1" format="ascii">
0.000000e+00
0.000000e+00
0.000000e+00
0.000000e+00
0.000000e+00
0.000000e+00
0.000000e+00
0.000000e+00
0.000000e+00
0.000000e+00
0.000000e+00
0.000000e+00
0.000000e+00
0.000000e+00
0.000000e+00
0.000000e+00
0.000000e+00
0.000000e+00
0.000000e+00
0.000000e+00
0.000000e+00
0.000000e+00
0.000000e+00
0.000000e+00
0.000000e+00
0.000000e+00
0.000000e+00
0.000000e+00
0.000000e+00
0.000000e+00
0.000000e+00
0.000000e+00
0.000000e+00
0.000000e+00
0.000000e+00
0.000000e+00
0.000000e+00
0.000000e+00
0.000000e+00
0.000000e+00
0.000000e+00
0.000000e+00
0.000000e+00
0.000000e+00
0.000000e+00
0.000000e+00
0.000000e+00
0.000000e+00
0.000000e+00
0.000000e+00
0.000000e+00
0.000000e+00
0.000000e+00
0.000000e+00
0.000000e+00
0.000000e+00
0.000000e+00
0.000000e+00
0.000000e+00
0.000000e+00
0.000000e+00
0.000000e+00
0.000000e+00
0.000000e+00
0.000000e+00
0.000000e+00
0.000000e+00
0.000000e+00
0.000000e+00
0.000000e+00
0.000000e+00
0.000000e+00
0.000000e+00
0.000000e+00
0.000000e+00
0.000000e+00
0.000000e+00
0.000000e+00
0.000000e+00
0.000000e+00
0.000000e+00
0.000000e+00
0.000000e+00
0.000000e+00
0.000000e+00
0.000000e+00
0.000000e+00
0.000000e+00
0.000000e+00
0.000000e+00
0.000000e+00
0.000000e+00
0.000000e+00
0.000000e+00
0.000000e+00
0.000000e+00
0.000000e+00
0.000000e+00
0.000000e+00
0.000000e+00
0.000000e+00
0.000000e+00
0.000000e+00
0.000000e+00
0.000000e+00
0.000000e+00
0.000000e+00
0.000000e+00
0.000000e+00
0.000000e+00
0.000000e+00
0.000000e+00
0.000000e+00
0.000000e+00
0.000000e+00
0.000000e+00
0.000000e+00
0.000000e+00
0.000000e+00
0.000000e+00
0.000000e+00
0.000000e+00
0.000000e+00
0.000000e+00
0.000000e+00
0.000000e+00
0.000000e+00
0.000000e+00
0.000000e+00
0.000000e+00
0.000000e+00
0.000000e+00
0.000000e+00
0.000000e+00
0.000000e+00
0.000000e+00
0.000000e+00
0.000000e+00
0.000000e+00
0.000000e+00
0.000000e+00
0.000000e+00
0.000000e+00
0.000000e+00
</DataArray>
<DataArray Name="mesh_vars/FaceElements_Tag" type="Float64" NumberOfComponents="1" format="ascii">
2.000000e+00
2.000000e+00
2.000000e+00
2.000000e+00
2.000000e+00
2.000000e+00
2.000000e+00
2.000000e+00
2.000000e+00
2.000000e+00
2.000000e+00
2.000000e+00
2.000000e+00
2.000000e+00
2.000000e+00
2.000000e+00
1.000000e+02
1.000000e+02
1.000000e+02
1.000000e+02
1.000000e+02
1.000000e+02
1.000000e+02
1.000000e+02
1.000000e+02
1.000000e+02
1.000000e+02
1.000000e+02
2.000000e+00
2.000000e+00
2.000000e+00
2.000000e+00
2.000000e+00
2.000000e+00
2.000000e+00
2.000000e+00
2.000000e+02
2.000000e+02
2.000000e+02
2.000000e+02
2.000000e+02
2.000000e+02
2.000000e+02
2.000000e+02
2.000000e+02
2.000000e+02
2.000000e+02
2.000000e+02
2.000000e+01
2.000000e+01
2.000000e+01
2.000000e+01
2.000000e+01
2.000000e+01
2.000000e+01
2.000000e+01
2.000000e+01
2.000000e+01
2.000000e+01
2.000000e+01
1.000000e+01
1.000000e+01
1.000000e+01
1.000000e+01
1.000000e+01
1.000000e+01
1.000000e+01
1.000000e+01
1.000000e+01
1.000000e+01
1.000000e+01
1.000000e+01
2.000000e+02
2.000000e+02
2.000000e+02
2.000000e+02
2.000000e+02
2.000000e+02
2.000000e+02
2.000000e+02
1.000000e+01