<?xml version="1.0"?>
<VTKFile type="UnstructuredGrid" version="0.1">
<UnstructuredGrid>
<FieldData>
<DataArray Name="TIME" type="Float64" format="ascii" NumberOfTuples="1">
0.000000e+00
</DataArray>
</FieldData>
<FieldData>
<DataArray Name="CYCLE" type="Int32" format="ascii" NumberOfTuples="1">
0
</DataArray>
</FieldData>
<Piece NumberOfPoints="17" NumberOfCells="20">
<Points>
<DataArray NumberOfComponents="3" type="Float64" format="ascii">
1.000000e+00 1.000000e+00 0.000000e+00
1.000000e+00 6.666667e-01 0.000000e+00
1.000000e+00 3.333333e-01 0.000000e+00
1.000000e+00 0.000000e+00 0.000000e+00
6.666667e-01 0.000000e+00 0.000000e+00
3.333333e-01 0.000000e+00 0.000000e+00
0.000000e+00 0.000000e+00 0.000000e+00
0.000000e+00 1.000000e+00 0.000000e+00
0.000000e+00 6.666667e-01 0.000000e+00
0.000000e+00 3.333333e-01 0.000000e+00
3.333333e-01 1.000000e+00 0.000000e+00
6.666667e-01 1.000000e+00 0.000000e+00
7.014658e-01 2.986558e-01 0.000000e+00
3.239390e-01 2.773111e-01 0.000000e+00
3.050581e-01 6.950284e-01 0.000000e+00
7.227778e-01 6.761019e-01 0.000000e+00
5.000690e-01 5.000334e-01 0.000000e+00
</DataArray>
</Points>
<Cells>
<DataArray Name="connectivity" type="Int32" format="ascii">
11 0 15
0 1 15
1 2 15
2 12 15
2 3 12
3 4 12
12 4 13
4 5 13
5 6 13
6 9 13
7 10 14
8 7 14
9 8 14
13 9 14
10 11 14
11 15 14
16 12 13
12 16 15
16 13 14
15 16 14
</DataArray>
<DataArray Name="offsets" type="Int32" format="ascii">
3
6
9
12
15
18
21
24
27
30
33
36
39
42
45
48
51
54
57
60
</DataArray>
<DataArray Name="types" type="UInt8" format="ascii">
5
5
5
5
5
5
5
5
5
5
5
5
5
5
5
5
5
5
5
5
</DataArray>
</Cells>
<PointData>
<DataArray Name="data" type="Float64" NumberOfComponents="9" format="ascii">
1.100000e+01 2.100000e+01 0.000000e+00 1.200000e+01 2.200000e+01 0.000000e+00 0.000000e+00 0.000000e+00 0.000000e+00
1.100000e+01 2.100000e+01 0.000000e+00 1.200000e+01 2.200000e+01 0.000000e+00 0.000000e+00 0.000000e+00 0.000000e+00
1.100000e+01 2.100000e+01 0.000000e+00 1.200000e+01 2.200000e+01 0.000000e+00 0.000000e+00 0.000000e+00 0.000000e+00
1.100000e+01 2.100000e+01 0.000000e+00 1.200000e+01 2.200000e+01 0.000000e+00 0.000000e+00 0.000000e+00 0.000000e+00
7.333333e+00 1.400000e+01 0.000000e+00 8.000000e+00 1.466667e+01 0.000000e+00 0.000000e+00 0.000000e+00 0.000000e+00
3.666667e+00 7.000000e+00 0.000000e+00 4.000000e+00 7.333333e+00 0.000000e+00 0.000000e+00 0.000000e+00 0.000000e+00
0.000000e+00 0.000000e+00 0.000000e+00 0.000000e+00 0.000000e+00 0.000000e+00 0.000000e+00 0.000000e+00 0.000000e+00
0.000000e+00 0.000000e+00 0.000000e+00 0.000000e+00 0.000000e+00 0.000000e+00 0.000000e+00 0.000000e+00 0.000000e+00
0.000000e+00 0.000000e+00 0.000000e+00 0.000000e+00 0.000000e+00 0.000000e+00 0.000000e+00 0.000000e+00 0.000000e+00
0.000000e+00 0.000000e+00 0.000000e+00 0.000000e+00 0.000000e+00 0.000000e+00 0.000000e+00 0.000000e+00 0.000000e+00
3.666667e+00 7.000000e+00 0.000000e+00 4.000000e+00 7.333333e+00 0.000000e+00 0.000000e+00 0.000000e+00 0.000000e+00
7.333333e+00 1.400000e+01 0.000000e+00 8.000000e+00 1.466667e+01 0.000000e+00 0.000000e+00 0.000000e+00 0.000000e+00
7.716124e+00 1.473078e+01 0.000000e+00 8.417589e+00 1.543225e+01 0.000000e+00 0.000000e+00 0.000000e+00 0.000000e+00
3.563329e+00 6.802718e+00 0.000000e+00 3.887268e+00 7.126657e+00 0.000000e+00 0.000000e+00 0.000000e+00 0.000000e+00
3.355639e+00 6.406219e+00 0.000000e+00 3.660697e+00 6.711277e+00 0.000000e+00 0.000000e+00 0.000000e+00 0.000000e+00
7.950556e+00 1.517833e+01 0.000000e+00 8.673333e+00 1.590111e+01 0.000000e+00 0.000000e+00 0.000000e+00 0.000000e+00
5.500759e+00 1.050145e+01 0.000000e+00 6.000828e+00 1.100152e+01 0.000000e+00 0.000000e+00 0.000000e+00 0.000000e+00
</DataArray>
<DataArray Name="mesh_vars/Nodes_Id" type="Float64" NumberOfComponents="1" format="ascii">
0.000000e+00
1.000000e+00
2.000000e+00
3.000000e+00
4.000000e+00
5.000000e+00
6.000000e+00
7.000000e+00
8.000000e+00
9.000000e+00
1.000000e+01
1.100000e+01
1.200000e+01
1.300000e+01
1.400000e+01
1.500000e+01
1.600000e+01
</DataArray>
<DataArray Name="mesh_vars/Nodes_Tag" type="Float64" NumberOfComponents="1" format="ascii">
0.000000e+00
0.000000e+00
0.000000e+00
0.000000e+00
0.000000e+00
0.000000e+00
0.000000e+00
0.000000e+00
0.000000e+00
0.000000e+00
0.000000e+00
0.000000e+00
0.000000e+00
0.000000e+00
0.000000e+00
0.000000e+00
0.000000e+00
</DataArray>
<DataArray Name="mesh_vars/Nodes_gDOF" type="Float64" NumberOfComponents="1" format="ascii">
0.000000e+00
1.000000e+00
2.000000e+00
3.000000e+00
4.000000e+00
5.000000e+00
6.000000e+00
7.000000e+00
8.000000e+00
9.000000e+00
1.000000e+01
1.100000e+01
1.200000e+01
1.300000e+01
1.400000e+01
1.500000e+01
1.600000e+01
</DataArray>
<DataArray Name="mesh_vars/Nodes_gNI" type="Float64" NumberOfComponents="1" format="ascii">
0.000000e+00
1.000000e+00
2.000000e+00
3.000000e+00
4.000000e+00
5.000000e+00
6.000000e+00
7.000000e+00
8.000000e+00
9.000000e+00
1.000000e+01
1.100000e+01
1.200000e+01
1.300000e+01
1.400000e+01
1.500000e+01
1.600000e+01
</DataArray>
<DataArray Name="mesh_vars/Nodes_grDfI" type="Float64" NumberOfComponents="1" format="ascii">
0.000000e+00
1.000000e+00
2.000000e+00
3.000000e+00
4.000000e+00
5.000000e+00
6.000000e+00
7.000000e+00
8.000000e+00
9.000000e+00
1.000000e+01
1.100000e+01
1.200000e+01
1.300000e+01
1.400000e+01
1.500000e+01
1.600000e+01
</DataArray>
<DataArray Name="mesh_vars/Nodes_grNI" type="Float64" NumberOfComponents="1" format="ascii">
0.000000e+00
1.000000e+00
2.000000e+00
3.000000e+00
4.000000e+00
5.000000e+00
6.000000e+00
7.000000e+00
8.000000e+00
9.000000e+00
1.000000e+01
1.100000e+01
1.200000e+01
1.300000e+01
1.400000e+01
1.500000e+01
1.600000e+01
</DataArray>
</PointData>
<CellData>
<DataArray Name="mesh_vars/Elements_Color" type="Float64" NumberOfComponents="1" format="ascii">
4.000000e+00
3.000000e+00
0.000000e+00
2.000000e+00
1.000000e+00
4.000000e+00
0.000000e+00
1.000000e+00
5.000000e+00
4.000000e+00
4.000000e+00
5.000000e+00
0.000000e+00
2.000000e+00
3.000000e+00
1.000000e+00
3.000000e+00
5.000000e+00
6.000000e+00
7.000000e+00
</DataArray>
<DataArray Name="mesh_vars/Elements_Id" type="Float64" NumberOfComponents="1" format="ascii">
1.100000e+01
1.400000e+01
7.000000e+00
5.000000e+00
1.200000e+01
1.500000e+01
0.000000e+00
1.000000e+00
1.800000e+01
1.700000e+01
9.000000e+00
1.000000e+01
3.000000e+00
2.000000e+00
6.000000e+00
4.000000e+00
8.000000e+00
1.900000e+01
1.300000e+01
1.600000e+01
</DataArray>
<DataArray Name="mesh_vars/Elements_Owner" type="Float64" NumberOfComponents="1" format="ascii">
0.000000e+00
0.000000e+00
0.000000e+00
0.000000e+00
0.000000e+00
0.000000e+00
0.000000e+00
0.000000e+00
0.000000e+00
0.000000e+00
0.000000e+00
0.000000e+00
0.000000e+00
0.000000e+00
0.000000e+00
0.000000e+00
0.000000e+00
0.000000e+00
0.000000e+00
0.000000e+00
</DataArray>
<DataArray Name="mesh_vars/Elements_Tag" type="Float64" NumberOfComponents="1" format="ascii">
6.000000e+00
6.000000e+00
6.000000e+00
6.000000e+00
6.000000e+00
6.000000e+00
6.000000e+00
6.000000e+00
6.000000e+00
6.000000e+00
6.000000e+00
6.000000e+00
6.000000e+00
6.000000e+00
6.000000e+00
6.000000e+00
6.000000e+00
6.000000e+00
6.000000e+00
6.000000e+00
</DataArray>
</CellData>
</Piece>
</UnstructuredGrid>
</VTKFile>
