<?xml version="1.0"?>
<VTKFile type="UnstructuredGrid" version="0.1">
<UnstructuredGrid>
<Piece NumberOfPoints="3830" NumberOfCells="7422">
<Points>
<DataArray NumberOfComponents="3" type="Float64" format="ascii">
 0.000000e+00 0.000000e+00 0.000000e+00
 1.000000e+00 0.000000e+00 0.000000e+00
 1.000000e+00 1.000000e+00 0.000000e+00
 0.000000e+00 1.000000e+00 0.000000e+00
 1.694915e-02 0.000000e+00 0.000000e+00
 3.389831e-02 0.000000e+00 0.000000e+00
 5.084746e-02 0.000000e+00 0.000000e+00
 6.779661e-02 0.000000e+00 0.000000e+00
 8.474576e-02 0.000000e+00 0.000000e+00
 1.016949e-01 0.000000e+00 0.000000e+00
 1.186441e-01 0.000000e+00 0.000000e+00
 1.355932e-01 0.000000e+00 0.000000e+00
 1.525424e-01 0.000000e+00 0.000000e+00
 1.694915e-01 0.000000e+00 0.000000e+00
 1.864407e-01 0.000000e+00 0.000000e+00
 2.033898e-01 0.000000e+00 0.000000e+00
 2.203390e-01 0.000000e+00 0.000000e+00
 2.372881e-01 0.000000e+00 0.000000e+00
 2.542373e-01 0.000000e+00 0.000000e+00
 2.711864e-01 0.000000e+00 0.000000e+00
 2.881356e-01 0.000000e+00 0.000000e+00
 3.050847e-01 0.000000e+00 0.000000e+00
 3.220339e-01 0.000000e+00 0.000000e+00
 3.389831e-01 0.000000e+00 0.000000e+00
 3.559322e-01 0.000000e+00 0.000000e+00
 3.728814e-01 0.000000e+00 0.000000e+00
 3.898305e-01 0.000000e+00 0.000000e+00
 4.067797e-01 0.000000e+00 0.000000e+00
 4.237288e-01 0.000000e+00 0.000000e+00
 4.406780e-01 0.000000e+00 0.000000e+00
 4.576271e-01 0.000000e+00 0.000000e+00
 4.745763e-01 0.000000e+00 0.000000e+00
 4.915254e-01 0.000000e+00 0.000000e+00
 5.084746e-01 0.000000e+00 0.000000e+00
 5.254237e-01 0.000000e+00 0.000000e+00
 5.423729e-01 0.000000e+00 0.000000e+00
 5.593220e-01 0.000000e+00 0.000000e+00
 5.762712e-01 0.000000e+00 0.000000e+00
 5.932203e-01 0.000000e+00 0.000000e+00
 6.101695e-01 0.000000e+00 0.000000e+00
 6.271186e-01 0.000000e+00 0.000000e+00
 6.440678e-01 0.000000e+00 0.000000e+00
 6.610169e-01 0.000000e+00 0.000000e+00
 6.779661e-01 0.000000e+00 0.000000e+00
 6.949153e-01 0.000000e+00 0.000000e+00
 7.118644e-01 0.000000e+00 0.000000e+00
 7.288136e-01 0.000000e+00 0.000000e+00
 7.457627e-01 0.000000e+00 0.000000e+00
 7.627119e-01 0.000000e+00 0.000000e+00
 7.796610e-01 0.000000e+00 0.000000e+00
 7.966102e-01 0.000000e+00 0.000000e+00
 8.135593e-01 0.000000e+00 0.000000e+00
 8.305085e-01 0.000000e+00 0.000000e+00
 8.474576e-01 0.000000e+00 0.000000e+00
 8.644068e-01 0.000000e+00 0.000000e+00
 8.813559e-01 0.000000e+00 0.000000e+00
 8.983051e-01 0.000000e+00 0.000000e+00
 9.152542e-01 0.000000e+00 0.000000e+00
 9.322034e-01 0.000000e+00 0.000000e+00
 9.491525e-01 0.000000e+00 0.000000e+00
 9.661017e-01 0.000000e+00 0.000000e+00
 9.830508e-01 0.000000e+00 0.000000e+00
 1.000000e+00 1.694915e-02 0.000000e+00
 1.000000e+00 3.389831e-02 0.000000e+00
 1.000000e+00 5.084746e-02 0.000000e+00
 1.000000e+00 6.779661e-02 0.000000e+00
 1.000000e+00 8.474576e-02 0.000000e+00
 1.000000e+00 1.016949e-01 0.000000e+00
 1.000000e+00 1.186441e-01 0.000000e+00
 1.000000e+00 1.355932e-01 0.000000e+00
 1.000000e+00 1.525424e-01 0.000000e+00
 1.000000e+00 1.694915e-01 0.000000e+00
 1.000000e+00 1.864407e-01 0.000000e+00
 1.000000e+00 2.033898e-01 0.000000e+00
 1.000000e+00 2.203390e-01 0.000000e+00
 1.000000e+00 2.372881e-01 0.000000e+00
 1.000000e+00 2.542373e-01 0.000000e+00
 1.000000e+00 2.711864e-01 0.000000e+00
 1.000000e+00 2.881356e-01 0.000000e+00
 1.000000e+00 3.050847e-01 0.000000e+00
 1.000000e+00 3.220339e-01 0.000000e+00
 1.000000e+00 3.389831e-01 0.000000e+00
 1.000000e+00 3.559322e-01 0.000000e+00
 1.000000e+00 3.728814e-01 0.000000e+00
 1.000000e+00 3.898305e-01 0.000000e+00
 1.000000e+00 4.067797e-01 0.000000e+00
 1.000000e+00 4.237288e-01 0.000000e+00
 1.000000e+00 4.406780e-01 0.000000e+00
 1.000000e+00 4.576271e-01 0.000000e+00
 1.000000e+00 4.745763e-01 0.000000e+00
 1.000000e+00 4.915254e-01 0.000000e+00
 1.000000e+00 5.084746e-01 0.000000e+00
 1.000000e+00 5.254237e-01 0.000000e+00
 1.000000e+00 5.423729e-01 0.000000e+00
 1.000000e+00 5.593220e-01 0.000000e+00
 1.000000e+00 5.762712e-01 0.000000e+00
 1.000000e+00 5.932203e-01 0.000000e+00
 1.000000e+00 6.101695e-01 0.000000e+00
 1.000000e+00 6.271186e-01 0.000000e+00
 1.000000e+00 6.440678e-01 0.000000e+00
 1.000000e+00 6.610169e-01 0.000000e+00
 1.000000e+00 6.779661e-01 0.000000e+00
 1.000000e+00 6.949153e-01 0.000000e+00
 1.000000e+00 7.118644e-01 0.000000e+00
 1.000000e+00 7.288136e-01 0.000000e+00
 1.000000e+00 7.457627e-01 0.000000e+00
 1.000000e+00 7.627119e-01 0.000000e+00
 1.000000e+00 7.796610e-01 0.000000e+00
 1.000000e+00 7.966102e-01 0.000000e+00
 1.000000e+00 8.135593e-01 0.000000e+00
 1.000000e+00 8.305085e-01 0.000000e+00
 1.000000e+00 8.474576e-01 0.000000e+00
 1.000000e+00 8.644068e-01 0.000000e+00
 1.000000e+00 8.813559e-01 0.000000e+00
 1.000000e+00 8.983051e-01 0.000000e+00
 1.000000e+00 9.152542e-01 0.000000e+00
 1.000000e+00 9.322034e-01 0.000000e+00
 1.000000e+00 9.491525e-01 0.000000e+00
 1.000000e+00 9.661017e-01 0.000000e+00
 1.000000e+00 9.830508e-01 0.000000e+00
 9.830508e-01 1.000000e+00 0.000000e+00
 9.661017e-01 1.000000e+00 0.000000e+00
 9.491525e-01 1.000000e+00 0.000000e+00
 9.322034e-01 1.000000e+00 0.000000e+00
 9.152542e-01 1.000000e+00 0.000000e+00
 8.983051e-01 1.000000e+00 0.000000e+00
 8.813559e-01 1.000000e+00 0.000000e+00
 8.644068e-01 1.000000e+00 0.000000e+00
 8.474576e-01 1.000000e+00 0.000000e+00
 8.305085e-01 1.000000e+00 0.000000e+00
 8.135593e-01 1.000000e+00 0.000000e+00
 7.966102e-01 1.000000e+00 0.000000e+00
 7.796610e-01 1.000000e+00 0.000000e+00
 7.627119e-01 1.000000e+00 0.000000e+00
 7.457627e-01 1.000000e+00 0.000000e+00
 7.288136e-01 1.000000e+00 0.000000e+00
 7.118644e-01 1.000000e+00 0.000000e+00
 6.949153e-01 1.000000e+00 0.000000e+00
 6.779661e-01 1.000000e+00 0.000000e+00
 6.610169e-01 1.000000e+00 0.000000e+00
 6.440678e-01 1.000000e+00 0.000000e+00
 6.271186e-01 1.000000e+00 0.000000e+00
 6.101695e-01 1.000000e+00 0.000000e+00
 5.932203e-01 1.000000e+00 0.000000e+00
 5.762712e-01 1.000000e+00 0.000000e+00
 5.593220e-01 1.000000e+00 0.000000e+00
 5.423729e-01 1.000000e+00 0.000000e+00
 5.254237e-01 1.000000e+00 0.000000e+00
 5.084746e-01 1.000000e+00 0.000000e+00
 4.915254e-01 1.000000e+00 0.000000e+00
 4.745763e-01 1.000000e+00 0.000000e+00
 4.576271e-01 1.000000e+00 0.000000e+00
 4.406780e-01 1.000000e+00 0.000000e+00
 4.237288e-01 1.000000e+00 0.000000e+00
 4.067797e-01 1.000000e+00 0.000000e+00
 3.898305e-01 1.000000e+00 0.000000e+00
 3.728814e-01 1.000000e+00 0.000000e+00
 3.559322e-01 1.000000e+00 0.000000e+00
 3.389831e-01 1.000000e+00 0.000000e+00
 3.220339e-01 1.000000e+00 0.000000e+00
 3.050847e-01 1.000000e+00 0.000000e+00
 2.881356e-01 1.000000e+00 0.000000e+00
 2.711864e-01 1.000000e+00 0.000000e+00
 2.542373e-01 1.000000e+00 0.000000e+00
 2.372881e-01 1.000000e+00 0.000000e+00
 2.203390e-01 1.000000e+00 0.000000e+00
 2.033898e-01 1.000000e+00 0.000000e+00
 1.864407e-01 1.000000e+00 0.000000e+00
 1.694915e-01 1.000000e+00 0.000000e+00
 1.525424e-01 1.000000e+00 0.000000e+00
 1.355932e-01 1.000000e+00 0.000000e+00
 1.186441e-01 1.000000e+00 0.000000e+00
 1.016949e-01 1.000000e+00 0.000000e+00
 8.474576e-02 1.000000e+00 0.000000e+00
 6.779661e-02 1.000000e+00 0.000000e+00
 5.084746e-02 1.000000e+00 0.000000e+00
 3.389831e-02 1.000000e+00 0.000000e+00
 1.694915e-02 1.000000e+00 0.000000e+00
 0.000000e+00 9.830508e-01 0.000000e+00
 0.000000e+00 9.661017e-01 0.000000e+00
 0.000000e+00 9.491525e-01 0.000000e+00
 0.000000e+00 9.322034e-01 0.000000e+00
 0.000000e+00 9.152542e-01 0.000000e+00
 0.000000e+00 8.983051e-01 0.000000e+00
 0.000000e+00 8.813559e-01 0.000000e+00
 0.000000e+00 8.644068e-01 0.000000e+00
 0.000000e+00 8.474576e-01 0.000000e+00
 0.000000e+00 8.305085e-01 0.000000e+00
 0.000000e+00 8.135593e-01 0.000000e+00
 0.000000e+00 7.966102e-01 0.000000e+00
 0.000000e+00 7.796610e-01 0.000000e+00
 0.000000e+00 7.627119e-01 0.000000e+00
 0.000000e+00 7.457627e-01 0.000000e+00
 0.000000e+00 7.288136e-01 0.000000e+00
 0.000000e+00 7.118644e-01 0.000000e+00
 0.000000e+00 6.949153e-01 0.000000e+00
 0.000000e+00 6.779661e-01 0.000000e+00
 0.000000e+00 6.610169e-01 0.000000e+00
 0.000000e+00 6.440678e-01 0.000000e+00
 0.000000e+00 6.271186e-01 0.000000e+00
 0.000000e+00 6.101695e-01 0.000000e+00
 0.000000e+00 5.932203e-01 0.000000e+00
 0.000000e+00 5.762712e-01 0.000000e+00
 0.000000e+00 5.593220e-01 0.000000e+00
 0.000000e+00 5.423729e-01 0.000000e+00
 0.000000e+00 5.254237e-01 0.000000e+00
 0.000000e+00 5.084746e-01 0.000000e+00
 0.000000e+00 4.915254e-01 0.000000e+00
 0.000000e+00 4.745763e-01 0.000000e+00
 0.000000e+00 4.576271e-01 0.000000e+00
 0.000000e+00 4.406780e-01 0.000000e+00
 0.000000e+00 4.237288e-01 0.000000e+00
 0.000000e+00 4.067797e-01 0.000000e+00
 0.000000e+00 3.898305e-01 0.000000e+00
 0.000000e+00 3.728814e-01 0.000000e+00
 0.000000e+00 3.559322e-01 0.000000e+00
 0.000000e+00 3.389831e-01 0.000000e+00
 0.000000e+00 3.220339e-01 0.000000e+00
 0.000000e+00 3.050847e-01 0.000000e+00
 0.000000e+00 2.881356e-01 0.000000e+00
 0.000000e+00 2.711864e-01 0.000000e+00
 0.000000e+00 2.542373e-01 0.000000e+00
 0.000000e+00 2.372881e-01 0.000000e+00
 0.000000e+00 2.203390e-01 0.000000e+00
 0.000000e+00 2.033898e-01 0.000000e+00
 0.000000e+00 1.864407e-01 0.000000e+00
 0.000000e+00 1.694915e-01 0.000000e+00
 0.000000e+00 1.525424e-01 0.000000e+00
 0.000000e+00 1.355932e-01 0.000000e+00
 0.000000e+00 1.186441e-01 0.000000e+00
 0.000000e+00 1.016949e-01 0.000000e+00
 0.000000e+00 8.474576e-02 0.000000e+00
 0.000000e+00 6.779661e-02 0.000000e+00
 0.000000e+00 5.084746e-02 0.000000e+00
 0.000000e+00 3.389831e-02 0.000000e+00
 0.000000e+00 1.694915e-02 0.000000e+00
 5.005028e-01 4.998391e-01 0.000000e+00
 7.071661e-01 2.918712e-01 0.000000e+00
 7.058461e-01 7.075282e-01 0.000000e+00
 2.933884e-01 7.073367e-01 0.000000e+00
 2.938885e-01 2.941144e-01 0.000000e+00
 4.999703e-01 7.791089e-01 0.000000e+00
 5.001569e-01 2.194803e-01 0.000000e+00
 2.181991e-01 4.983680e-01 0.000000e+00
[...]
<PointData Scalars="press" Vectors="vel">
<DataArray Name="press" type="Float64" NumberOfComponents="1" format="ascii">
 2.544555e+06
 2.440599e+06
 -2.459512e+06
 -2.659316e+06
 2.550486e+06
 2.538716e+06
 2.544574e+06
 2.533804e+06
 2.537525e+06
 2.536677e+06
 2.528194e+06
 2.525303e+06
 2.522502e+06
 2.521088e+06
 2.516199e+06
 2.513118e+06
 2.508969e+06
 2.506589e+06
 2.495950e+06
 2.501009e+06
 2.491916e+06
 2.485307e+06
 2.483087e+06
 2.473592e+06
 2.463335e+06
 2.448285e+06
 2.421730e+06
 2.401953e+06
 2.390651e+06
 2.399682e+06
 2.417334e+06
 2.436400e+06
 2.451899e+06
 2.467097e+06
 2.479172e+06
 2.493485e+06
 2.494626e+06
 2.504588e+06
 2.512935e+06
 2.512439e+06
 2.515175e+06
 2.514402e+06
 2.514228e+06
 2.510674e+06
 2.508557e+06
 2.507676e+06
 2.506704e+06
 2.505305e+06
 2.503743e+06
 2.495872e+06
 2.499782e+06
 2.498756e+06
 2.498815e+06
 2.495452e+06
 2.494926e+06
 2.494881e+06
 2.500846e+06
 2.500692e+06
 2.494424e+06
 2.495243e+06
 2.475162e+06
 2.457907e+06
 2.418718e+06
 2.361490e+06
 2.282031e+06
 2.197158e+06
 2.110155e+06
 2.022215e+06
 1.933849e+06
 1.845690e+06
 1.757567e+06
 1.670067e+06
 1.582950e+06
 1.496973e+06
 1.411680e+06
 1.327005e+06
 1.242335e+06
 1.158006e+06
 1.073464e+06
 9.889806e+05
 9.041730e+05
 8.191271e+05
 7.339002e+05
 6.482521e+05
 5.625594e+05
 4.763637e+05
 3.901671e+05
 3.035199e+05
 2.169198e+05
 1.299973e+05
 4.301416e+04
 -4.389538e+04
 -1.310024e+05
 -2.179568e+05
 -3.049195e+05
 -3.918135e+05
 -4.788161e+05
 -5.656460e+05
 -6.523412e+05
 -7.394281e+05
 -8.260533e+05
 -9.128667e+05
 -9.994559e+05
 -1.085989e+06
 -1.172450e+06
 -1.258765e+06
 -1.344809e+06
 -1.430800e+06
 -1.516492e+06
 -1.601847e+06
 -1.686971e+06
 -1.771104e+06
 -1.854398e+06
 -1.935915e+06
 -2.015252e+06
 -2.091987e+06
 -2.165660e+06
 -2.235168e+06
 -2.303781e+06
 -2.364176e+06
 -2.453984e+06
 -2.468701e+06
 -2.465424e+06
 -2.480776e+06
 -2.480864e+06
 -2.485273e+06
 -2.497969e+06
 -2.504961e+06
 -2.510676e+06
 -2.514668e+06
 -2.520438e+06
 -2.524403e+06
 -2.532068e+06
 -2.525521e+06
 -2.525371e+06
 -2.526011e+06
 -2.527672e+06
 -2.531318e+06
 -2.534234e+06
 -2.536387e+06
 -2.541802e+06
 -2.544804e+06
 -2.549832e+06
 -2.551869e+06
 -2.554195e+06
 -2.555580e+06
 -2.557358e+06
 -2.556206e+06
 -2.560658e+06
 -2.562457e+06
 -2.564560e+06
 -2.568965e+06
 -2.571435e+06
 -2.569683e+06
 -2.568850e+06
 -2.571980e+06
 -2.564528e+06
 -2.561852e+06
 -2.561088e+06
 -2.557966e+06
 -2.560202e+06
 -2.558203e+06
 -2.553753e+06
 -2.561627e+06
 -2.555484e+06
 -2.556616e+06
 -2.556027e+06
 -2.556980e+06
 -2.556846e+06
 -2.560907e+06
 -2.563718e+06
 -2.567971e+06
 -2.568883e+06
 -2.577867e+06
 -2.592955e+06
 -2.601565e+06
 -2.625499e+06
 -2.644002e+06
 -2.508638e+06
 -2.387882e+06
 -2.292793e+06
 -2.205988e+06
 -2.123518e+06
 -2.043915e+06
 -1.964315e+06
 -1.883321e+06
 -1.804019e+06
 -1.723119e+06
 -1.642847e+06
 -1.558054e+06
 -1.468285e+06
 -1.370907e+06
 -1.269384e+06
 -1.167490e+06
 -1.068547e+06
 -9.748899e+05
 -8.849553e+05
 -7.988266e+05
 -7.148966e+05
 -6.328987e+05
 -5.509526e+05
 -4.689078e+05
 -3.852853e+05
 -2.989537e+05
 -2.086952e+05
 -1.153234e+05
 -2.008293e+04
 7.349265e+04
 1.615854e+05
 2.462568e+05
 3.303012e+05
 4.145345e+05
 4.989463e+05
 5.835384e+05
 6.683157e+05
 7.530562e+05
 8.377697e+05
 9.222750e+05
 1.006570e+06
 1.090703e+06
 1.174545e+06
 1.258308e+06
 1.342017e+06
 1.425718e+06
 1.509528e+06
 1.593511e+06
 1.677706e+06
 1.762329e+06
 1.847422e+06
 1.933267e+06
 2.020163e+06
 2.108294e+06
 2.198036e+06
 2.290310e+06
 2.383346e+06
 2.482777e+06
 -1.082006e+04
 1.056049e+06
 -1.064140e+06
 -1.059096e+06
 1.069591e+06
 -1.408076e+06
 1.422338e+06
 -1.079925e+04
 5.600593e+03
 1.669687e+06
 -1.676823e+06
 1.654566e+06
 -1.666667e+06
 7.074775e+05
 -3.590155e+05
 -3.487507e+05
 7.306347e+05
 -1.747181e+06
 7.243805e+05
 -6.985998e+05
 -1.755343e+06
 -7.201141e+05
 1.759838e+06
 1.735964e+06
 4.059941e+05
 -6.996829e+05
 3.157614e+05
 1.003851e+06
 -1.005124e+06
 -1.961388e+06
 1.811522e+05
 1.964149e+06
 -1.878216e+05
 -1.109402e+06
 5.052084e+05
 1.974660e+06
 -1.227921e+06
 1.213385e+06
 -1.987185e+06
 -1.984398e+06
 -1.253267e+06
 1.986700e+06
 1.230942e+06
 -5.318809e+05
 -5.260681e+05
 1.231773e+06
 4.865758e+05
 -2.033709e+06
 2.015357e+06
 2.022712e+06
 -2.050921e+06
 5.981038e+05
 2.026843e+06
 -2.037999e+06
 -3.086244e+05
 3.157377e+05
 1.496487e+06
 1.235369e+06
 -1.502250e+06
 -1.513311e+06
 1.127924e+06
 -1.135836e+06
 1.536753e+06
 -1.146844e+06
 4.350399e+04
 -3.946181e+05
 2.618276e+05
 -5.881727e+03
 9.810052e+05
 7.327191e+05
 1.339690e+06
 -7.586314e+05
 -1.322168e+06
 -2.128040e+06
 -2.119593e+06
 1.603970e+06
 1.618918e+06
 2.109994e+06
 2.110348e+06
 -1.618611e+06
 -1.645834e+06
 -7.563228e+05
 -6.923827e+04
 -5.535976e+05
 2.134872e+06
 -2.111290e+06
 5.729235e+05
 -3.471310e+05
 2.140707e+06
 -8.141656e+05
 -2.128402e+06
 8.416241e+05
 -1.358787e+06
 -1.499885e+06
 -1.639792e+06
 -3.400338e+05
 3.372036e+05
 1.635411e+06
 1.543001e+06
 3.504108e+05
 -3.605792e+05
 7.867152e+05
 8.975924e+05
 -1.062815e+06
 1.405233e+06
 -9.243539e+05
 2.165046e+06
 -2.178748e+06
 9.261448e+05
 -1.068045e+05
 2.567339e+05
 -5.540143e+05
 -8.631855e+05
 -7.286227e+05
 -1.304685e+06
 -2.223725e+05
 -8.719366e+05
 6.661931e+05
 2.198436e+06
 -2.197202e+06
 -1.333077e+04
 2.967186e+04
 -5.858112e+05
 -2.971356e+04
 2.118590e+04
 1.726410e+06
 -1.722772e+06
 1.259502e+06
 -1.750233e+06
 1.727913e+06
 1.051220e+06
 -1.741224e+06
 -1.385686e+06
 1.723937e+06
 -1.373027e+06
 1.355689e+06
 8.998293e+05
 1.201329e+06
 1.025771e+06
 -2.219159e+06
 5.581051e+05
 -5.404727e+05
 2.225286e+06
 4.941588e+05
 6.822880e+03
 -5.476700e+05
 1.916902e+05
 2.737907e+05
 2.241556e+06
 -2.216407e+06
 -2.263424e+06
 2.237542e+06
 -1.185538e+06
 1.740680e+05
 3.448436e+05
 3.028484e+05
 -2.813717e+05
 2.236750e+06
 -2.231955e+06
 1.739937e+06
 -1.740748e+06
 1.383753e+06
 -1.753542e+06
 2.239318e+06
 -1.363240e+06
 -2.231304e+06
 -2.233553e+06
 -1.392276e+06
 1.365376e+06
 2.235646e+06
 1.343430e+06
 -1.804247e+06
 1.002950e+06
 -1.011072e+06
 1.796361e+06
 -1.024524e+06
 -5.192052e+05
 -1.041144e+06
 1.829547e+06
 -8.657999e+05
 7.931486e+05
 -2.286927e+05
 4.416161e+05
 -1.046449e+06
 -2.238744e+06
 -2.255567e+06
 -1.868934e+06
 1.844556e+06
 -1.892210e+06
 1.846741e+06
 2.249209e+06
 2.254940e+06
 7.088717e+05
 -5.796990e+05
 5.489433e+05
 9.634398e+05
 1.501036e+06
 -4.566736e+05
 -7.765928e+05
 -1.322140e+06
 1.225742e+06
 -1.237912e+06
 1.290153e+06
 -1.238409e+06
 -6.138902e+05
 1.175649e+05
 1.052632e+06
 1.079322e+06
 -2.253489e+06
 2.264548e+06
 -1.097089e+06
 -1.909104e+06
 1.895812e+06
 1.907015e+06
 -1.921599e+06
 -7.785399e+05
 5.811950e+05
 1.470839e+06
 -1.479607e+06
 1.488897e+06
 -1.490723e+06
 -2.681665e+05
 7.958693e+05
 7.942619e+05
 -1.539034e+06
 1.952085e+06
 -1.954001e+06
 -5.509939e+05
 5.701320e+05
 1.555335e+06
 -3.372829e+05
 3.943394e+05
 1.321728e+06
 -2.594201e+05
 -1.544983e+06
 6.314120e+05
 4.777648e+05
 8.788708e+05
 -2.055090e+05
 -8.874979e+05
 -8.819863e+05
 5.381847e+04
 -2.265639e+06
 2.281194e+06
 -2.658642e+05
 2.714648e+05
 -1.542469e+06
 1.530871e+06
 -1.563566e+06
 1.879464e+06
 -1.968376e+06
 -6.756785e+04
 1.965248e+06
 7.230143e+04
 -1.677504e+06
 -1.214655e+05
 3.580803e+05
 -1.938124e+06
 9.047606e+05
 1.396610e+06
 -4.990155e+05
 9.287886e+05
 -7.556769e+05
 1.992977e+06
 -1.143251e+05
 1.702850e+06
 -1.328294e+06
 -2.289112e+06
 1.134907e+06
 1.236357e+06
 -1.118967e+06
 2.286283e+06
 -1.530145e+06
 2.121270e+05
 -3.497414e+05
 1.545142e+06
 1.584220e+06
 2.452147e+05
 7.249617e+05
 -2.292302e+06
 -7.178036e+05
 2.291563e+06
 -3.145786e+05
 5.932790e+05
 -1.899346e+06
 -1.907003e+06
 1.890219e+06
 1.276403e+06
 -1.209177e+06
 1.084883e+06
 1.808024e+06
 1.793761e+06
 -1.820466e+06
 -5.360370e+05
 -1.803584e+06
 -7.999291e+05
 1.957274e+06
 -1.888252e+06
 -8.773526e+05
 -1.590446e+06
 -1.925522e+05
 1.203534e+06
 1.025148e+06
 7.623520e+05
 -8.994137e+05
 2.324073e+06
 -2.319178e+06
 1.537708e+06
 1.552473e+06
 -2.301198e+06
 2.328398e+06
 -1.593123e+06
 -1.566208e+06
 1.396900e+05
 3.548180e+04
 -1.313424e+06
 1.905369e+05
 1.052461e+06
 -4.046298e+05
 -1.397499e+05
 7.460793e+05
 -7.170941e+05
 -2.302298e+06
 2.328217e+06
 1.434903e+06
 -8.211797e+05
 8.389506e+05
 2.489480e+05
 -2.433058e+05
 1.828618e+06
 -1.840333e+06
 6.211122e+05
 -5.181013e+05
 4.907150e+05
 -2.305691e+06
 -4.750021e+05
 2.305601e+06
 -1.749375e+05
 -1.688817e+04
 -1.760996e+06
 1.748824e+06
 -5.023143e+05
 5.146346e+05
 -1.385737e+06
 1.231827e+06
 -1.414779e+06
 -1.452611e+06
 1.404657e+06
 -4.108180e+05
 8.364342e+05
 -2.043745e+06
 2.034370e+06
 -2.047796e+06
 1.937044e+05
 2.042550e+06
 -5.609440e+05
 2.344162e+06
 -1.480798e+06
 2.345481e+06
 -2.041552e+06
 -1.998647e+06
 -1.925777e+06
 -2.081071e+06
 -2.299181e+06
 -2.336533e+06
 -1.015758e+06
 1.998567e+06
 2.053032e+06
 -9.490103e+05
 2.047313e+06
 -1.238359e+06
 -9.346521e+05
 6.810464e+05
 2.013771e+06
 1.529769e+06
 -1.309203e+06
 3.879101e+05
 -1.010841e+06
 9.965258e+05
 8.829277e+05
 -8.822892e+05
 -3.636794e+05
 -8.219491e+05
 -1.433922e+05
 1.466233e+05
 1.551604e+06
 1.931277e+06
 -2.038544e+06
 1.443090e+06
 3.859318e+05
 7.318700e+05
 -2.341733e+05
 -1.172465e+06
 9.613878e+05
 8.635651e+05
 4.972966e+05
 -1.052006e+06
 -1.191890e+06
 -1.715013e+05
 -1.059376e+06
 -5.365946e+05
 5.165697e+05
 7.216115e+05
 -2.071489e+06
 -2.317966e+06
 -1.137532e+05
 2.327667e+06
 1.290169e+05
 1.587472e+06
 -4.295000e+05
 1.145188e+06
 1.039153e+05
 3.718924e+05
 -1.310547e+06
 1.458620e+06
 -1.195786e+06
 -1.175703e+06
 1.794817e+06
 1.165397e+06
 -1.129938e+06
 -1.303308e+06
 1.293640e+06
 -1.705299e+06
 1.785339e+06
 -1.687851e+06
 1.216599e+06
 1.954170e+06
 -2.030254e+06
 1.051460e+06
 7.170237e+04
 1.936310e+05
 1.154362e+06
 -5.677969e+05
 5.425031e+05
 -1.511721e+06
 1.116853e+06
 -6.788868e+05
 5.572368e+05
 -1.564569e+06
 -9.612197e+05
 2.355966e+06
 9.690833e+05
 -2.339805e+06
 9.352558e+05
 -3.681804e+05
 2.368776e+06
 -2.333508e+06
 9.188984e+05
 -8.952551e+05
 -1.478339e+06
 7.496401e+05
 1.078948e+06
 1.585848e+06
 -7.124780e+05
 -2.076050e+06
 2.071952e+06
 -2.086340e+06
 2.084840e+06
 2.136147e+06
 1.491310e+05
 -2.137265e+06
 -1.351611e+05
 -1.045763e+06
 -1.803353e+05
 -6.866614e+05
 1.381371e+06
 8.372993e+05
 -2.188932e+05
 4.302045e+05
 -2.337746e+06
 -4.308787e+05
 2.363099e+06
 1.951368e+05
 -7.049263e+05
 4.330234e+05
 6.396784e+05
 1.726832e+06
 1.717334e+06
 -2.361836e+06
 2.373852e+06
 -1.766249e+06
 -1.715160e+06
 -2.335998e+06
 1.706327e+06
 2.380205e+06
 -1.736671e+06
 -1.733501e+06
 3.211437e+05
 -1.646037e+06
 -9.236499e+05
 2.369188e+06
 1.221848e+06
 -2.331834e+06
 -1.259583e+06
 1.411693e+06
 -1.588599e+06
 -7.088336e+05
 1.742889e+06
 -2.309542e+06
 -2.377159e+06
 2.368681e+06
 2.382828e+06
 1.841170e+05
 -6.556476e+05
 6.714271e+05
 -2.084778e+06
 2.100027e+06
 -8.447368e+05
 2.115494e+06
 -1.133746e+06
 1.182898e+05
 2.362579e+06
 -1.120737e+05
 1.672275e+06
 -2.337430e+06
 -9.334457e+05
 1.890164e+06
 8.775131e+05
 -1.356400e+06
 -1.385265e+06
 1.348507e+06
 -6.649233e+05
 -6.220612e+05
 -2.155575e+06
 5.688116e+05
 1.213910e+06
 -6.131105e+05
 -1.249603e+06
 -2.157842e+06
 2.152017e+06
 1.204977e+06
 1.466890e+05
 -8.427420e+05
 1.857611e+06
 -3.676745e+05
 -5.703880e+02
 1.083716e+06
 -3.983137e+05
 4.081147e+05
 1.885124e+06
 -1.902876e+06
 -1.225644e+06
 4.395893e+05
 -6.044911e+05
 7.097086e+05
 6.201981e+05
 -1.179578e+06
 -1.804220e+06
 -6.756938e+05
 5.068484e+05
 -1.378102e+06
 7.549683e+05
 2.138093e+06
 -2.142364e+06
 -1.782559e+05
 1.857052e+05
 3.423398e+04
 -7.767808e+05
 1.382677e+06
 -7.244988e+05
 -2.167256e+06
 -3.884225e+05
 3.920820e+05
 2.184729e+06
 -1.643341e+06
 1.508454e+06
 -1.502937e+06
 3.370433e+05
 1.637551e+06
 -1.532293e+06
 2.070133e+05
 -3.630719e+05
 4.740943e+05
 -1.894141e+06
 1.782885e+06
 -3.879321e+05
 9.299469e+05
 1.628975e+06
 1.572469e+06
 -1.631599e+06
 -1.580871e+06
 1.370732e+06
 1.517674e+06
 -1.649124e+06
 -1.593229e+06
 7.297571e+05
 1.466565e+05
 1.266200e+06
 -2.166302e+06
 2.077050e+06
 -2.359377e+06
 -1.268565e+06
 2.082364e+06
 -2.194393e+06
 -1.211198e+06
 2.375571e+06
 -1.695230e+06
 1.059778e+06
 1.635285e+06
 1.819844e+06
 2.116754e+06
 -1.364998e+06
 -4.720011e+05
 -1.923385e+06
 4.000363e+04
 -5.403093e+04
 1.885243e+06
 -8.835758e+05
 -1.911096e+06
 -1.905942e+06
 1.634304e+06
 1.165735e+06
 -1.840738e+06
 -3.721103e+05
 6.315383e+05
 4.064563e+05
 -4.212575e+05
 1.378076e+06
 -4.576348e+05
 -2.351160e+06
 2.387159e+06
 -5.843793e+05
 6.019387e+05
 -2.008582e+06
 6.485900e+05
 2.175834e+06
 -2.030931e+06
 -9.584257e+04
 2.179185e+06
 -7.164890e+05
 2.144125e+06
 -1.775062e+06
 8.948658e+05
 1.135510e+06
 1.649458e+06
 -1.503320e+05
 1.374435e+06
 -7.408016e+05
 -1.387765e+06
 1.335894e+06
 -1.385421e+06
 -1.603279e+06
 6.482928e+05
 1.139832e+05
 1.360666e+06
 -1.832663e+06
 8.590346e+05
 3.775982e+05
 1.707428e+06
 8.672660e+05
 1.014018e+06
 -1.206000e+06
 1.226336e+06
 1.096657e+06
 1.840453e+06
 -4.347166e+05
 -1.073168e+06
 -1.033330e+06
 -8.630879e+05
 -1.025865e+06
 -5.047085e+05
 -1.402293e+06
 -2.256558e+05
 1.201255e+06
 5.283904e+05
 -6.449523e+05
 3.556715e+05
 -1.071991e+04
 -2.362908e+06
 2.346963e+06
 -2.347334e+06
 -3.245275e+05
 2.385194e+06
 1.404591e+06
 5.761759e+04
 1.420609e+06
 -1.466946e+06
 -2.368136e+06
 -1.430534e+06
 1.385119e+06
 2.393512e+06
 3.722843e+05
 1.132190e+06
 -1.143619e+06
 -1.169203e+06
 2.739775e+05
 -7.216724e+05
 1.761678e+06
 -1.790631e+06
 -1.765989e+06
 1.752585e+06
 2.405189e+06
 -1.204719e+05
 2.398531e+06
 2.196688e+06
 -2.394567e+06
 -2.209289e+06
 -2.338288e+06
 2.200642e+06
 -2.174379e+06
 1.088741e+06
 5.191007e+05
 -2.330196e+05
 -6.862971e+05
 -1.187342e+06
 -1.322795e+05
 -2.149459e+06
 1.260805e+06
 1.405832e+06
 2.941648e+05
 3.595038e+05
 -1.271287e+06
 -5.464631e+05
 -1.286266e+06
 -1.032157e+06
 -9.030638e+05
 -2.175904e+03
 -7.923896e+05
 1.375199e+06
 1.518905e+06
 2.166887e+06
 6.028083e+05
 1.647330e+06
 -6.944245e+05
 1.358890e+06
 8.542601e+05
 1.197576e+06
 -1.812714e+05
 1.696977e+06
 -1.276296e+06
 1.785929e+05
 2.114625e+06
 -6.122982e+05
 4.280171e+05
 -6.783600e+05
 7.014553e+05
 1.474831e+06
 7.553047e+05
 2.399395e+06
 -2.382941e+06
 1.480983e+06
 -1.914454e+06
 9.858165e+05
 1.647176e+06
 1.910995e+06
 -1.681873e+06
 1.936510e+04
 -2.347928e+06
 1.901681e+06
 -1.940594e+06
 -1.664478e+06
 2.192213e+06
 2.402483e+06
 -1.498535e+06
 -2.195545e+06
 -2.188841e+06
 -1.089617e+06
 -1.529889e+06
 1.818023e+06
 2.186179e+06
 -2.503075e+04
 1.481065e+06
 -1.433802e+06
 9.311229e+05
 -1.011787e+05
 1.971933e+06
 1.897313e+06
 6.373575e+05
 1.906905e+06
 9.084977e+05
 -9.984628e+05
 -9.902420e+05
 -2.216736e+06
 -2.232534e+06
 2.222988e+06
 1.258404e+06
 -1.661522e+06
 2.219386e+06
 -1.831907e+06
 -1.778356e+06
 2.575907e+05
 4.304085e+05
 -1.300043e+06
 -1.321976e+05
 8.415602e+05
 7.741854e+05
 -6.003781e+05
 2.368868e+06
 1.800560e+06
 -1.823926e+06
 -1.812289e+06
 -2.372651e+06
 1.802346e+06
 6.233809e+05
 1.583474e+06
 -7.361544e+05
 -1.086270e+06
 -1.891863e+06
 -4.258250e+05
 1.071367e+06
 -1.031429e+06
 -3.838778e+05
 -1.895448e+06
 -8.845476e+05
 1.323732e+06
 1.677979e+06
 -2.093867e+06
 -5.855122e+05
 -2.464808e+05
 4.741678e+05
 -1.057105e+06
 -1.544083e+06
 -3.734519e+05
 -3.062368e+05
 -2.749949e+05
 1.622902e+06
 -2.269982e+05
 -4.647540e+05
 2.181116e+05
 6.413893e+05
 9.778878e+05
 -9.760599e+05
 -4.782452e+05
 -1.988228e+06
 -1.988787e+06
 1.974983e+06
 -2.169673e+06
 1.072260e+06
 1.931584e+06
 1.921093e+06
 -1.929982e+06
 -1.943384e+06
 -1.137957e+06
 -5.147243e+05
 7.289917e+05
 6.092271e+05
 -1.460049e+06
 2.046295e+06
 -2.084150e+06
 1.259725e+06
 -4.982229e+05
 2.100018e+06
 4.623482e+05
 -9.596433e+05
 2.772612e+05
 -2.836803e+05
 -1.631854e+06
 -1.898763e+06
 -1.917468e+06
 2.013803e+06
 -2.015746e+06
 5.756225e+04
 -2.170236e+06
 -5.525193e+04
 1.484811e+06
 1.567393e+06
 1.134122e+04
 -4.597060e+05
 1.052852e+06
 2.407241e+06
 -1.539234e+06
 1.524195e+06
 -2.378135e+06
 -1.042590e+06
 -8.154785e+05
 3.431268e+05
 -2.362768e+06
 2.386872e+06
 8.272814e+05
 -5.471285e+05
 1.673454e+06
 1.515644e+06
 -9.111395e+05
 -1.412541e+06
 1.857665e+06
 5.350882e+05
 1.024477e+06
 -8.849095e+05
 2.038110e+06
 -1.713786e+06
 3.446566e+05
 1.667076e+06
 -1.687116e+06
 1.678921e+06
 -1.346214e+06
 -7.577774e+04
 -1.669691e+06
 1.865977e+06
 -1.172672e+06
 1.394119e+06
 1.903637e+06
 -1.834995e+06
 1.153523e+06
 -8.002945e+05
 1.828205e+06
 -1.105356e+05
 1.032582e+06
 1.121104e+05
 -2.180195e+06
 -1.487502e+06
 -9.325091e+05
 -2.157617e+06
 4.307536e+05
 -1.180185e+06
 2.812375e+05
 1.159623e+05
 9.235845e+05
 -1.616934e+06
 9.712720e+05
 -1.771977e+06
 -3.611624e+05
 1.760679e+06
 -1.941985e+05
 3.665297e+05
 -5.989954e+05
 6.087895e+05
 2.241869e+06
 -2.248503e+06
 3.978895e+05
 -2.757043e+05
 1.286998e+06
 -1.176015e+06
 1.754437e+06
 -9.108125e+05
 -1.760217e+06
 1.274538e+06
 -1.773301e+06
 8.519424e+05
 -1.186613e+06
 -9.283856e+04
 -3.020200e+05
 1.109206e+05
 -1.099931e+05
 1.789217e+06
 1.466903e+06
 -1.576423e+06
 1.325869e+05
 -1.496390e+06
 6.166526e+05
 -1.963867e+06
 1.881131e+06
 -2.045302e+05
 2.110874e+05
 9.881404e+05
 1.964195e+06
 7.048002e+05
 1.519896e+06
 1.668061e+06
 2.019105e+06
 1.289832e+06
 -1.999513e+06
 -1.630210e+06
 -4.509081e+05
 1.719549e+06
 2.390590e+06
 -1.051506e+06
 -2.379925e+06
 3.425232e+04
 -1.349008e+06
 8.803822e+05
 -1.268771e+06
 -1.170305e+04
 -1.291306e+06
 -1.848961e+06
 1.256460e+06
 -4.868881e+05
 -9.863259e+05
 -1.014426e+04
 9.735327e+05
 -1.452825e+06
 3.408661e+05
 7.822122e+05
 1.344942e+06
 -4.105361e+05
 2.614686e+05
 -2.388772e+06
 2.418884e+06
 -3.086819e+05
 -1.804547e+06
 1.320697e+06
 -2.210005e+06
 -1.411860e+06
 1.045100e+05
 9.021428e+05
 -2.381056e+06
 1.062089e+06
 -1.397726e+06
 -1.056349e+06
 1.388418e+06
 2.397854e+06
 2.224435e+06
 -9.399094e+05
 1.169196e+06
 1.529205e+06
 3.573491e+05
 -1.568205e+06
 -1.542758e+06
 -7.397965e+05
 7.657593e+05
 2.017569e+06
 6.824456e+05
 -3.356493e+05
 -2.015855e+06
 -2.021146e+06
 2.005186e+06
 -6.524004e+05
 1.672517e+06
 -7.990075e+04
 2.100247e+06
 9.987414e+04
 3.885573e+05
 2.094552e+06
 2.263136e+06
 8.535981e+05
 2.463090e+05
 -8.429261e+05
 2.247474e+05
 1.205117e+06
 -1.864814e+06
 9.687430e+05
 -2.058755e+06
 -2.391764e+05
 2.554855e+05
 -5.128559e+05
 1.634301e+06
 -1.232200e+06
 2.233585e+06
 1.549922e+06
 1.041762e+06
 -1.035935e+06
 2.225902e+06
 2.206680e+06
 1.638598e+06
 2.222996e+06
 -2.114787e+06
 -2.124926e+06
 -2.084116e+06
 -1.911496e+06
 -7.081045e+04
 2.081399e+06
 8.122643e+04
 1.164385e+06
 -7.116092e+04
 -1.436519e+06
 1.964733e+06
 1.991466e+06
 4.848801e+05
 1.606811e+06
 -2.234121e+06
 7.039874e+05
 -1.633005e+06
 8.455493e+05
 -8.168377e+05
 2.374021e+06
 2.456532e+05
 2.032864e+06
 1.072380e+06
 -2.383654e+06
 -2.255099e+05
 -2.097416e+05
 -1.911174e+05
 -2.108831e+05
 9.510810e+05
 -1.279151e+06
 -6.468142e+05
 -2.947704e+05
 5.107170e+05
 1.278348e+06
 -1.402773e+06
 -2.083977e+06
 7.684598e+04
 -2.074764e+06
 -9.431861e+05
 9.521387e+05
 2.230641e+05
 -3.621885e+04
 2.002983e+06
 -8.042631e+05
 5.169431e+05
 7.489090e+05
 -2.137620e+06
 -8.075931e+05
 6.796557e+05
 -6.531059e+05
 9.907074e+05
 -1.255726e+06
 -2.220696e+06
 -1.357347e+06
 2.220513e+06
 1.294210e+06
 1.101677e+06
 1.109639e+06
 -1.135659e+06
 -2.137323e+06
 2.129387e+06
 -1.462558e+06
 -1.292302e+06
 1.289781e+06
 1.171167e+06
 2.434200e+06
 6.068637e+05
 -8.034545e+05
 -2.381740e+06
 8.262810e+05
 2.494824e+05
 -5.076048e+05
 1.705666e+06
 -1.402129e+06
 -1.633061e+06
 -1.022979e+06
 -3.490939e+05
 -8.858234e+05
 1.461816e+06
 8.984440e+05
 -1.308564e+06
 7.146805e+05
 -2.137916e+06
 -7.306435e+05
 -3.109465e+05
 -1.463571e+06
 5.905472e+05
 -6.056793e+05
 -2.033515e+06
 1.135980e+06
 -1.667725e+06
 -2.406142e+06
 1.622470e+06
 -2.376339e+06
 2.436408e+06
 1.611651e+06
 2.439018e+06
 -1.632125e+06
 -2.348518e+05
 -1.669023e+06