<?xml version="1.0"?>
<VTKFile type="UnstructuredGrid" version="0.1">
<UnstructuredGrid>
<Piece NumberOfPoints="3830" NumberOfCells="7422">
<Points>
<DataArray NumberOfComponents="3" type="Float64" format="ascii">
 0.000000e+00 0.000000e+00 0.000000e+00
 1.000000e+00 0.000000e+00 0.000000e+00
 1.000000e+00 1.000000e+00 0.000000e+00
 0.000000e+00 1.000000e+00 0.000000e+00
 1.694915e-02 0.000000e+00 0.000000e+00
 3.389831e-02 0.000000e+00 0.000000e+00
 5.084746e-02 0.000000e+00 0.000000e+00
 6.779661e-02 0.000000e+00 0.000000e+00
 8.474576e-02 0.000000e+00 0.000000e+00
 1.016949e-01 0.000000e+00 0.000000e+00
 1.186441e-01 0.000000e+00 0.000000e+00
 1.355932e-01 0.000000e+00 0.000000e+00
 1.525424e-01 0.000000e+00 0.000000e+00
 1.694915e-01 0.000000e+00 0.000000e+00
 1.864407e-01 0.000000e+00 0.000000e+00
 2.033898e-01 0.000000e+00 0.000000e+00
 2.203390e-01 0.000000e+00 0.000000e+00
 2.372881e-01 0.000000e+00 0.000000e+00
 2.542373e-01 0.000000e+00 0.000000e+00
 2.711864e-01 0.000000e+00 0.000000e+00
 2.881356e-01 0.000000e+00 0.000000e+00
 3.050847e-01 0.000000e+00 0.000000e+00
 3.220339e-01 0.000000e+00 0.000000e+00
 3.389831e-01 0.000000e+00 0.000000e+00
 3.559322e-01 0.000000e+00 0.000000e+00
 3.728814e-01 0.000000e+00 0.000000e+00
 3.898305e-01 0.000000e+00 0.000000e+00
 4.067797e-01 0.000000e+00 0.000000e+00
 4.237288e-01 0.000000e+00 0.000000e+00
 4.406780e-01 0.000000e+00 0.000000e+00
 4.576271e-01 0.000000e+00 0.000000e+00
 4.745763e-01 0.000000e+00 0.000000e+00
 4.915254e-01 0.000000e+00 0.000000e+00
 5.084746e-01 0.000000e+00 0.000000e+00
 5.254237e-01 0.000000e+00 0.000000e+00
 5.423729e-01 0.000000e+00 0.000000e+00
 5.593220e-01 0.000000e+00 0.000000e+00
 5.762712e-01 0.000000e+00 0.000000e+00
 5.932203e-01 0.000000e+00 0.000000e+00
 6.101695e-01 0.000000e+00 0.000000e+00
 6.271186e-01 0.000000e+00 0.000000e+00
 6.440678e-01 0.000000e+00 0.000000e+00
 6.610169e-01 0.000000e+00 0.000000e+00
 6.779661e-01 0.000000e+00 0.000000e+00
 6.949153e-01 0.000000e+00 0.000000e+00
 7.118644e-01 0.000000e+00 0.000000e+00
 7.288136e-01 0.000000e+00 0.000000e+00
 7.457627e-01 0.000000e+00 0.000000e+00
 7.627119e-01 0.000000e+00 0.000000e+00
 7.796610e-01 0.000000e+00 0.000000e+00
 7.966102e-01 0.000000e+00 0.000000e+00
 8.135593e-01 0.000000e+00 0.000000e+00
 8.305085e-01 0.000000e+00 0.000000e+00
 8.474576e-01 0.000000e+00 0.000000e+00
 8.644068e-01 0.000000e+00 0.000000e+00
 8.813559e-01 0.000000e+00 0.000000e+00
 8.983051e-01 0.000000e+00 0.000000e+00
 9.152542e-01 0.000000e+00 0.000000e+00
 9.322034e-01 0.000000e+00 0.000000e+00
 9.491525e-01 0.000000e+00 0.000000e+00
 9.661017e-01 0.000000e+00 0.000000e+00
 9.830508e-01 0.000000e+00 0.000000e+00
 1.000000e+00 1.694915e-02 0.000000e+00
 1.000000e+00 3.389831e-02 0.000000e+00
 1.000000e+00 5.084746e-02 0.000000e+00
 1.000000e+00 6.779661e-02 0.000000e+00
 1.000000e+00 8.474576e-02 0.000000e+00
 1.000000e+00 1.016949e-01 0.000000e+00
 1.000000e+00 1.186441e-01 0.000000e+00
 1.000000e+00 1.355932e-01 0.000000e+00
 1.000000e+00 1.525424e-01 0.000000e+00
 1.000000e+00 1.694915e-01 0.000000e+00
 1.000000e+00 1.864407e-01 0.000000e+00
 1.000000e+00 2.033898e-01 0.000000e+00
 1.000000e+00 2.203390e-01 0.000000e+00
 1.000000e+00 2.372881e-01 0.000000e+00
 1.000000e+00 2.542373e-01 0.000000e+00
 1.000000e+00 2.711864e-01 0.000000e+00
 1.000000e+00 2.881356e-01 0.000000e+00
 1.000000e+00 3.050847e-01 0.000000e+00
 1.000000e+00 3.220339e-01 0.000000e+00
 1.000000e+00 3.389831e-01 0.000000e+00
 1.000000e+00 3.559322e-01 0.000000e+00
 1.000000e+00 3.728814e-01 0.000000e+00
 1.000000e+00 3.898305e-01 0.000000e+00
 1.000000e+00 4.067797e-01 0.000000e+00
 1.000000e+00 4.237288e-01 0.000000e+00
 1.000000e+00 4.406780e-01 0.000000e+00
 1.000000e+00 4.576271e-01 0.000000e+00
 1.000000e+00 4.745763e-01 0.000000e+00
 1.000000e+00 4.915254e-01 0.000000e+00
 1.000000e+00 5.084746e-01 0.000000e+00
 1.000000e+00 5.254237e-01 0.000000e+00
 1.000000e+00 5.423729e-01 0.000000e+00
 1.000000e+00 5.593220e-01 0.000000e+00
 1.000000e+00 5.762712e-01 0.000000e+00
 1.000000e+00 5.932203e-01 0.000000e+00
 1.000000e+00 6.101695e-01 0.000000e+00
 1.000000e+00 6.271186e-01 0.000000e+00
 1.000000e+00 6.440678e-01 0.000000e+00
 1.000000e+00 6.610169e-01 0.000000e+00
 1.000000e+00 6.779661e-01 0.000000e+00
 1.000000e+00 6.949153e-01 0.000000e+00
 1.000000e+00 7.118644e-01 0.000000e+00
 1.000000e+00 7.288136e-01 0.000000e+00
 1.000000e+00 7.457627e-01 0.000000e+00
 1.000000e+00 7.627119e-01 0.000000e+00
 1.000000e+00 7.796610e-01 0.000000e+00
 1.000000e+00 7.966102e-01 0.000000e+00
 1.000000e+00 8.135593e-01 0.000000e+00
 1.000000e+00 8.305085e-01 0.000000e+00
 1.000000e+00 8.474576e-01 0.000000e+00
 1.000000e+00 8.644068e-01 0.000000e+00
 1.000000e+00 8.813559e-01 0.000000e+00
 1.000000e+00 8.983051e-01 0.000000e+00
 1.000000e+00 9.152542e-01 0.000000e+00
 1.000000e+00 9.322034e-01 0.000000e+00
 1.000000e+00 9.491525e-01 0.000000e+00
 1.000000e+00 9.661017e-01 0.000000e+00
 1.000000e+00 9.830508e-01 0.000000e+00
 9.830508e-01 1.000000e+00 0.000000e+00
 9.661017e-01 1.000000e+00 0.000000e+00
 9.491525e-01 1.000000e+00 0.000000e+00
 9.322034e-01 1.000000e+00 0.000000e+00
 9.152542e-01 1.000000e+00 0.000000e+00
 8.983051e-01 1.000000e+00 0.000000e+00
 8.813559e-01 1.000000e+00 0.000000e+00
 8.644068e-01 1.000000e+00 0.000000e+00
 8.474576e-01 1.000000e+00 0.000000e+00
 8.305085e-01 1.000000e+00 0.000000e+00
 8.135593e-01 1.000000e+00 0.000000e+00
 7.966102e-01 1.000000e+00 0.000000e+00
 7.796610e-01 1.000000e+00 0.000000e+00
 7.627119e-01 1.000000e+00 0.000000e+00
 7.457627e-01 1.000000e+00 0.000000e+00
 7.288136e-01 1.000000e+00 0.000000e+00
 7.118644e-01 1.000000e+00 0.000000e+00
 6.949153e-01 1.000000e+00 0.000000e+00
 6.779661e-01 1.000000e+00 0.000000e+00
 6.610169e-01 1.000000e+00 0.000000e+00
 6.440678e-01 1.000000e+00 0.000000e+00
 6.271186e-01 1.000000e+00 0.000000e+00
 6.101695e-01 1.000000e+00 0.000000e+00
 5.932203e-01 1.000000e+00 0.000000e+00
 5.762712e-01 1.000000e+00 0.000000e+00
 5.593220e-01 1.000000e+00 0.000000e+00
 5.423729e-01 1.000000e+00 0.000000e+00
 5.254237e-01 1.000000e+00 0.000000e+00
 5.084746e-01 1.000000e+00 0.000000e+00
 4.915254e-01 1.000000e+00 0.000000e+00
 4.745763e-01 1.000000e+00 0.000000e+00
 4.576271e-01 1.000000e+00 0.000000e+00
 4.406780e-01 1.000000e+00 0.000000e+00
 4.237288e-01 1.000000e+00 0.000000e+00
 4.067797e-01 1.000000e+00 0.000000e+00
 3.898305e-01 1.000000e+00 0.000000e+00
 3.728814e-01 1.000000e+00 0.000000e+00
 3.559322e-01 1.000000e+00 0.000000e+00
 3.389831e-01 1.000000e+00 0.000000e+00
 3.220339e-01 1.000000e+00 0.000000e+00
 3.050847e-01 1.000000e+00 0.000000e+00
 2.881356e-01 1.000000e+00 0.000000e+00
 2.711864e-01 1.000000e+00 0.000000e+00
 2.542373e-01 1.000000e+00 0.000000e+00
 2.372881e-01 1.000000e+00 0.000000e+00
 2.203390e-01 1.000000e+00 0.000000e+00
 2.033898e-01 1.000000e+00 0.000000e+00
 1.864407e-01 1.000000e+00 0.000000e+00
 1.694915e-01 1.000000e+00 0.000000e+00
 1.525424e-01 1.000000e+00 0.000000e+00
 1.355932e-01 1.000000e+00 0.000000e+00
 1.186441e-01 1.000000e+00 0.000000e+00
 1.016949e-01 1.000000e+00 0.000000e+00
 8.474576e-02 1.000000e+00 0.000000e+00
 6.779661e-02 1.000000e+00 0.000000e+00
 5.084746e-02 1.000000e+00 0.000000e+00
 3.389831e-02 1.000000e+00 0.000000e+00
 1.694915e-02 1.000000e+00 0.000000e+00
 0.000000e+00 9.830508e-01 0.000000e+00
 0.000000e+00 9.661017e-01 0.000000e+00
 0.000000e+00 9.491525e-01 0.000000e+00
 0.000000e+00 9.322034e-01 0.000000e+00
 0.000000e+00 9.152542e-01 0.000000e+00
 0.000000e+00 8.983051e-01 0.000000e+00
 0.000000e+00 8.813559e-01 0.000000e+00
 0.000000e+00 8.644068e-01 0.000000e+00
 0.000000e+00 8.474576e-01 0.000000e+00
 0.000000e+00 8.305085e-01 0.000000e+00
 0.000000e+00 8.135593e-01 0.000000e+00
 0.000000e+00 7.966102e-01 0.000000e+00
 0.000000e+00 7.796610e-01 0.000000e+00
 0.000000e+00 7.627119e-01 0.000000e+00
 0.000000e+00 7.457627e-01 0.000000e+00
 0.000000e+00 7.288136e-01 0.000000e+00
 0.000000e+00 7.118644e-01 0.000000e+00
 0.000000e+00 6.949153e-01 0.000000e+00
 0.000000e+00 6.779661e-01 0.000000e+00
 0.000000e+00 6.610169e-01 0.000000e+00
 0.000000e+00 6.440678e-01 0.000000e+00
 0.000000e+00 6.271186e-01 0.000000e+00
 0.000000e+00 6.101695e-01 0.000000e+00
 0.000000e+00 5.932203e-01 0.000000e+00
 0.000000e+00 5.762712e-01 0.000000e+00
 0.000000e+00 5.593220e-01 0.000000e+00
 0.000000e+00 5.423729e-01 0.000000e+00
 0.000000e+00 5.254237e-01 0.000000e+00
 0.000000e+00 5.084746e-01 0.000000e+00
 0.000000e+00 4.915254e-01 0.000000e+00
 0.000000e+00 4.745763e-01 0.000000e+00
 0.000000e+00 4.576271e-01 0.000000e+00
 0.000000e+00 4.406780e-01 0.000000e+00
 0.000000e+00 4.237288e-01 0.000000e+00
 0.000000e+00 4.067797e-01 0.000000e+00
 0.000000e+00 3.898305e-01 0.000000e+00
 0.000000e+00 3.728814e-01 0.000000e+00
 0.000000e+00 3.559322e-01 0.000000e+00
 0.000000e+00 3.389831e-01 0.000000e+00
 0.000000e+00 3.220339e-01 0.000000e+00
 0.000000e+00 3.050847e-01 0.000000e+00
 0.000000e+00 2.881356e-01 0.000000e+00
 0.000000e+00 2.711864e-01 0.000000e+00
 0.000000e+00 2.542373e-01 0.000000e+00
 0.000000e+00 2.372881e-01 0.000000e+00
 0.000000e+00 2.203390e-01 0.000000e+00
 0.000000e+00 2.033898e-01 0.000000e+00
 0.000000e+00 1.864407e-01 0.000000e+00
 0.000000e+00 1.694915e-01 0.000000e+00
 0.000000e+00 1.525424e-01 0.000000e+00
 0.000000e+00 1.355932e-01 0.000000e+00
 0.000000e+00 1.186441e-01 0.000000e+00
 0.000000e+00 1.016949e-01 0.000000e+00
 0.000000e+00 8.474576e-02 0.000000e+00
 0.000000e+00 6.779661e-02 0.000000e+00
 0.000000e+00 5.084746e-02 0.000000e+00
 0.000000e+00 3.389831e-02 0.000000e+00
 0.000000e+00 1.694915e-02 0.000000e+00
 5.005028e-01 4.998391e-01 0.000000e+00
 7.071661e-01 2.918712e-01 0.000000e+00
 7.058461e-01 7.075282e-01 0.000000e+00
 2.933884e-01 7.073367e-01 0.000000e+00
 2.938885e-01 2.941144e-01 0.000000e+00
 4.999703e-01 7.791089e-01 0.000000e+00
 5.001569e-01 2.194803e-01 0.000000e+00
 2.181991e-01 4.983680e-01 0.000000e+00
[...]
<PointData Scalars="press" Vectors="vel">
<DataArray Name="press" type="Float64" NumberOfComponents="1" format="ascii">
 2.538397e+06
 2.446388e+06
 -2.448311e+06
 -2.729806e+06
 2.544191e+06
 2.532380e+06
 2.537825e+06
 2.526736e+06
 2.529772e+06
 2.528195e+06
 2.518916e+06
 2.514994e+06
 2.511092e+06
 2.508332e+06
 2.502200e+06
 2.497592e+06
 2.491715e+06
 2.487643e+06
 2.475738e+06
 2.477986e+06
 2.466101e+06
 2.455952e+06
 2.446893e+06
 2.429662e+06
 2.409470e+06
 2.392844e+06
 2.395331e+06
 2.419821e+06
 2.436368e+06
 2.446235e+06
 2.455189e+06
 2.465246e+06
 2.472918e+06
 2.481518e+06
 2.489641e+06
 2.501300e+06
 2.500629e+06
 2.510474e+06
 2.519104e+06
 2.518796e+06
 2.521971e+06
 2.521535e+06
 2.521809e+06
 2.518661e+06
 2.516650e+06
 2.516098e+06
 2.515414e+06
 2.514185e+06
 2.512605e+06
 2.504176e+06
 2.508273e+06
 2.506988e+06
 2.506860e+06
 2.502647e+06
 2.501475e+06
 2.500404e+06
 2.505591e+06
 2.504826e+06
 2.498360e+06
 2.499428e+06
 2.479815e+06
 2.463267e+06
 2.424424e+06
 2.366601e+06
 2.286075e+06
 2.199446e+06
 2.110294e+06
 2.020037e+06
 1.929729e+06
 1.840448e+06
 1.751795e+06
 1.664487e+06
 1.577698e+06
 1.492256e+06
 1.407555e+06
 1.323395e+06
 1.239041e+06
 1.155124e+06
 1.070828e+06
 9.866840e+05
 9.020936e+05
 8.172596e+05
 7.322570e+05
 6.467522e+05
 5.613026e+05
 4.752212e+05
 3.892370e+05
 3.026814e+05
 2.162576e+05
 1.293770e+05
 4.239903e+04
 -4.448104e+04
 -1.317258e+05
 -2.187864e+05
 -3.059417e+05
 -3.930614e+05
 -4.803604e+05
 -5.674424e+05
 -6.543197e+05
 -7.417069e+05
 -8.284053e+05
 -9.152904e+05
 -1.001821e+06
 -1.088188e+06
 -1.174393e+06
 -1.260378e+06
 -1.345935e+06
 -1.431373e+06
 -1.516368e+06
 -1.600881e+06
 -1.684966e+06
 -1.767865e+06
 -1.849736e+06
 -1.929731e+06
 -2.007556e+06
 -2.083157e+06
 -2.156345e+06
 -2.226317e+06
 -2.296317e+06
 -2.357854e+06
 -2.443041e+06
 -2.457422e+06
 -2.454550e+06
 -2.469743e+06
 -2.470217e+06
 -2.474558e+06
 -2.487077e+06
 -2.493528e+06
 -2.498677e+06
 -2.501649e+06
 -2.507110e+06
 -2.510947e+06
 -2.519676e+06
 -2.514522e+06
 -2.517288e+06
 -2.522353e+06
 -2.528019e+06
 -2.535190e+06
 -2.539788e+06
 -2.542265e+06
 -2.546765e+06
 -2.548780e+06
 -2.552954e+06
 -2.554961e+06
 -2.558072e+06
 -2.560591e+06
 -2.564330e+06
 -2.565288e+06
 -2.570298e+06
 -2.571738e+06
 -2.571473e+06
 -2.571064e+06
 -2.568629e+06
 -2.561774e+06
 -2.557895e+06
 -2.560359e+06
 -2.552948e+06
 -2.551575e+06
 -2.552495e+06
 -2.549908e+06
 -2.552882e+06
 -2.550517e+06
 -2.545183e+06
 -2.553704e+06
 -2.546620e+06
 -2.548186e+06
 -2.548401e+06
 -2.550422e+06
 -2.551632e+06
 -2.557935e+06
 -2.563725e+06
 -2.571675e+06
 -2.576751e+06
 -2.592970e+06
 -2.618108e+06
 -2.639925e+06
 -2.681950e+06
 -2.714439e+06
 -2.575528e+06
 -2.446144e+06
 -2.335728e+06
 -2.232354e+06
 -2.131876e+06
 -2.035170e+06
 -1.942336e+06
 -1.850396e+06
 -1.761141e+06
 -1.672689e+06
 -1.586377e+06
 -1.500714e+06
 -1.415803e+06
 -1.331602e+06
 -1.247723e+06
 -1.162347e+06
 -1.075716e+06
 -9.864078e+05
 -8.951119e+05
 -8.021980e+05
 -7.096904e+05
 -6.191316e+05
 -5.316797e+05
 -4.459023e+05
 -3.607426e+05
 -2.754272e+05
 -1.897892e+05
 -1.040045e+05
 -1.796897e+04
 6.816583e+04
 1.541626e+05
 2.400916e+05
 3.257100e+05
 4.109140e+05
 4.955773e+05
 5.799103e+05
 6.637823e+05
 7.471601e+05
 8.304202e+05
 9.133908e+05
 9.963675e+05
 1.079263e+06
 1.162233e+06
 1.245335e+06
 1.328585e+06
 1.412011e+06
 1.495717e+06
 1.579743e+06
 1.664136e+06
 1.749167e+06
 1.834893e+06
 1.921666e+06
 2.009813e+06
 2.099441e+06
 2.190749e+06
 2.284290e+06
 2.377364e+06
 2.475841e+06
 2.667825e+04
 1.055521e+06
 -1.065522e+06
 -1.075200e+06
 1.041540e+06
 -1.418331e+06
 1.411753e+06
 4.088066e+04
 7.695542e+03
 1.655708e+06
 -1.682450e+06
 1.652736e+06
 -1.664969e+06
 7.148844e+05
 -3.528529e+05
 -3.203333e+05
 7.311636e+05
 -1.748481e+06
 7.230909e+05
 -7.119135e+05
 -1.764443e+06
 -7.206253e+05
 1.744520e+06
 1.732282e+06
 4.465839e+05
 -7.211051e+05
 3.173222e+05
 9.854517e+05
 -1.007096e+06
 -1.970466e+06
 2.058531e+05
 1.950670e+06
 -1.869150e+05
 -1.132471e+06
 5.465242e+05
 1.972711e+06
 -1.228540e+06
 1.211530e+06
 -1.991031e+06
 -1.984409e+06
 -1.206854e+06
 1.971360e+06
 1.214230e+06
 -5.448468e+05
 -5.269827e+05
 1.229460e+06
 5.040101e+05
 -2.029325e+06
 2.013527e+06
 2.011248e+06
 -2.064702e+06
 5.995073e+05
 2.020770e+06
 -2.044046e+06
 -2.983465e+05
 3.151314e+05
 1.493963e+06
 1.209566e+06
 -1.502783e+06
 -1.518807e+06
 1.125902e+06
 -1.136424e+06
 1.517592e+06
 -1.147408e+06
 1.152474e+05
 -3.962902e+05
 2.788445e+05
 7.568181e+04
 9.743952e+05
 7.349116e+05
 1.318172e+06
 -7.735669e+05
 -1.324298e+06
 -2.135958e+06
 -2.118991e+06
 1.600914e+06
 1.605124e+06
 2.097325e+06
 2.108241e+06
 -1.617197e+06
 -1.627269e+06
 -7.542398e+05
 -6.491058e+04
 -5.545753e+05
 2.121158e+06
 -2.118621e+06
 5.801671e+05
 -3.189917e+05
 2.138044e+06
 -8.333153e+05
 -2.128474e+06
 8.399654e+05
 -1.368864e+06
 -1.511217e+06
 -1.643033e+06
 -3.512639e+05
 3.384475e+05
 1.629678e+06
 1.522366e+06
 4.332177e+05
 -3.605913e+05
 7.723367e+05
 8.449063e+05
 -1.064306e+06
 1.402841e+06
 -9.264925e+05
 2.154158e+06
 -2.181355e+06
 9.165019e+05
 -1.024810e+05
 2.593034e+05
 -5.970655e+05
 -8.641202e+05
 -7.374606e+05
 -1.313099e+06
 -1.847224e+05
 -8.856725e+05
 6.585627e+05
 2.190885e+06
 -2.200535e+06
 -6.718199e+03
 2.958857e+04
 -5.810905e+05
 -4.170827e+03
 2.242173e+04
 1.718137e+06
 -1.728517e+06
 1.243562e+06
 -1.756883e+06
 1.724974e+06
 1.027175e+06
 -1.741916e+06
 -1.382860e+06
 1.707301e+06
 -1.372960e+06
 1.353960e+06
 8.996871e+05
 1.195629e+06
 1.025841e+06
 -2.221146e+06
 5.568796e+05
 -5.314739e+05
 2.221895e+06
 5.009427e+05
 1.251786e+04
 -5.470327e+05
 2.535693e+05
 3.029263e+05
 2.234268e+06
 -2.209117e+06
 -2.296706e+06
 2.239044e+06
 -1.191434e+06
 2.703577e+05
 3.989473e+05
 3.061320e+05
 -2.818394e+05
 2.223707e+06
 -2.235249e+06
 1.738223e+06
 -1.740083e+06
 1.366987e+06
 -1.757731e+06
 2.226410e+06
 -1.363811e+06
 -2.231747e+06
 -2.239342e+06
 -1.337629e+06
 1.351078e+06
 2.233203e+06
 1.340593e+06
 -1.813439e+06
 1.000231e+06
 -1.011938e+06
 1.779677e+06
 -1.001670e+06
 -5.156222e+05
 -1.046185e+06
 1.806494e+06
 -8.976747e+05
 7.652822e+05
 -2.261067e+05
 4.756168e+05
 -1.076476e+06
 -2.237820e+06
 -2.272319e+06
 -1.865389e+06
 1.841046e+06
 -1.889631e+06
 1.833932e+06
 2.248188e+06
 2.245357e+06
 7.134687e+05
 -5.921271e+05
 5.507303e+05
 9.647786e+05
 1.497326e+06
 -4.564907e+05
 -7.791714e+05
 -1.323002e+06
 1.224101e+06
 -1.238611e+06
 1.267260e+06
 -1.246509e+06
 -6.146519e+05
 1.967028e+05
 1.029200e+06
 1.077085e+06
 -2.251993e+06
 2.261872e+06
 -1.082369e+06
 -1.906020e+06
 1.893578e+06
 1.894009e+06
 -1.930446e+06
 -8.004058e+05
 5.823400e+05
 1.468668e+06
 -1.479785e+06
 1.472570e+06
 -1.498101e+06
 -2.482461e+05
 7.860714e+05
 7.950124e+05
 -1.540830e+06
 1.947731e+06
 -1.957750e+06
 -5.557442e+05
 5.681498e+05
 1.535694e+06
 -3.376452e+05
 4.233043e+05
 1.299987e+06
 -2.070355e+05
 -1.545693e+06
 6.564789e+05
 4.941271e+05
 8.780434e+05
 -1.579548e+05
 -8.829728e+05
 -8.826280e+05
 7.583477e+04
 -2.266681e+06
 2.277391e+06
 -2.446007e+05
 2.708580e+05
 -1.541315e+06
 1.528614e+06
 -1.563460e+06
 1.864757e+06
 -1.976038e+06
 -5.333395e+04
 1.956504e+06
 7.313098e+04
 -1.685556e+06
 -5.607563e+04
 3.603173e+05
 -1.945455e+06
 8.925534e+05
 1.391352e+06
 -5.014045e+05
 9.290526e+05
 -7.568474e+05
 1.982868e+06
 -5.740685e+04
 1.691421e+06
 -1.335041e+06
 -2.292018e+06
 1.122113e+06
 1.216459e+06
 -1.120894e+06
 2.273429e+06
 -1.541312e+06
 2.752446e+05
 -3.494624e+05
 1.527025e+06
 1.570480e+06
 2.502544e+05
 7.216340e+05
 -2.294694e+06
 -7.198551e+05
 2.282923e+06
 -3.106387e+05
 6.066678e+05
 -1.897292e+06
 -1.912319e+06
 1.888181e+06
 1.274791e+06
 -1.215999e+06
 1.043195e+06
 1.795175e+06
 1.791094e+06
 -1.827462e+06
 -5.519732e+05
 -1.800827e+06
 -7.976963e+05
 1.954901e+06
 -1.889780e+06
 -9.039135e+05
 -1.599828e+06
 -1.798785e+05
 1.193429e+06
 1.010350e+06
 7.662541e+05
 -9.242308e+05
 2.312531e+06
 -2.329829e+06
 1.533729e+06
 1.538482e+06
 -2.303222e+06
 2.326360e+06
 -1.540189e+06
 -1.565787e+06
 1.424428e+05
 3.859414e+04
 -1.323406e+06
 2.888853e+05
 1.013487e+06
 -4.051955e+05
 -1.390161e+05
 7.444552e+05
 -7.202936e+05
 -2.302407e+06
 2.325527e+06
 1.420060e+06
 -8.341574e+05
 8.360704e+05
 2.497284e+05
 -2.400195e+05
 1.822079e+06
 -1.845124e+06
 6.211700e+05
 -5.451122e+05
 4.909022e+05
 -2.306789e+06
 -4.762829e+05
 2.301322e+06
 -1.696274e+05
 6.464573e+04
 -1.763407e+06
 1.744123e+06
 -5.118504e+05
 5.147668e+05
 -1.397090e+06
 1.230252e+06
 -1.414375e+06
 -1.406289e+06
 1.402189e+06
 -3.997845e+05
 8.205463e+05
 -2.043368e+06
 2.032107e+06
 -2.051982e+06
 3.075764e+05
 2.027981e+06
 -5.553900e+05
 2.336188e+06
 -1.487492e+06
 2.347308e+06
 -2.034442e+06
 -2.008158e+06
 -1.934863e+06
 -2.098641e+06
 -2.296384e+06
 -2.364906e+06
 -1.017287e+06
 1.984581e+06
 2.052023e+06
 -9.468735e+05
 2.036912e+06
 -1.245970e+06
 -9.384413e+05
 6.861924e+05
 1.992003e+06
 1.527125e+06
 -1.318767e+06
 4.070675e+05
 -9.929173e+05
 9.948420e+05
 8.836050e+05
 -9.076739e+05
 -3.634870e+05
 -8.396338e+05
 -1.355320e+05
 1.482736e+05
 1.543897e+06
 1.928205e+06
 -2.038820e+06
 1.429150e+06
 4.615866e+05
 7.222647e+05
 -2.335418e+05
 -1.174362e+06
 9.388665e+05
 8.303356e+05
 4.993940e+05
 -1.052635e+06
 -1.200291e+06
 -1.672169e+05
 -1.068287e+06
 -5.369202e+05
 5.325817e+05
 7.224374e+05
 -2.077602e+06
 -2.314208e+06
 -1.142011e+05
 2.324116e+06
 1.260870e+05
 1.584411e+06
 -4.213117e+05
 1.121586e+06
 1.105175e+05
 3.739284e+05
 -1.318627e+06
 1.440417e+06
 -1.173238e+06
 -1.176254e+06
 1.777622e+06
 1.163119e+06
 -1.134808e+06
 -1.303849e+06
 1.291445e+06
 -1.710436e+06
 1.783195e+06
 -1.688230e+06
 1.196604e+06
 1.939499e+06
 -2.035699e+06
 1.036310e+06
 1.341814e+05
 1.963419e+05
 1.153364e+06
 -5.741655e+05
 5.781970e+05
 -1.518811e+06
 1.114958e+06
 -6.931498e+05
 5.680243e+05
 -1.565074e+06
 -9.636117e+05
 2.342460e+06
 9.592082e+05
 -2.341756e+06
 8.796563e+05
 -3.448458e+05
 2.366380e+06
 -2.333210e+06
 9.168826e+05
 -9.117082e+05
 -1.482095e+06
 7.474923e+05
 1.077736e+06
 1.575607e+06
 -7.141915e+05
 -2.072858e+06
 2.070093e+06
 -2.098250e+06
 2.072955e+06
 2.123356e+06
 1.575659e+05
 -2.144321e+06
 -1.349084e+05
 -1.069597e+06
 -1.531583e+05
 -7.142220e+05
 1.373667e+06
 8.220704e+05
 -2.184511e+05
 4.292136e+05
 -2.338402e+06
 -4.086482e+05
 2.360268e+06
 2.721319e+05
 -7.288507e+05
 4.350467e+05
 6.348662e+05
 1.713335e+06
 1.712293e+06
 -2.376105e+06
 2.363368e+06
 -1.723974e+06
 -1.712930e+06
 -2.336796e+06
 1.703995e+06
 2.380189e+06
 -1.734516e+06
 -1.738185e+06
 3.554630e+05
 -1.656663e+06
 -9.250667e+05
 2.367074e+06
 1.219008e+06
 -2.331563e+06
 -1.224657e+06
 1.391845e+06
 -1.596457e+06
 -7.193503e+05
 1.729729e+06
 -2.302672e+06
 -2.432376e+06
 2.373487e+06
 2.376568e+06
 2.523343e+05
 -6.652992e+05
 6.696438e+05
 -2.087311e+06
 2.096814e+06
 -8.410420e+05
 2.101729e+06
 -1.135190e+06
 1.178135e+05
 2.359941e+06
 -9.946048e+04
 1.651901e+06
 -2.335361e+06
 -9.506175e+05
 1.874346e+06
 8.791571e+05
 -1.356199e+06
 -1.354378e+06
 1.346631e+06
 -6.826857e+05
 -6.223848e+05
 -2.159977e+06
 6.064876e+05
 1.199226e+06
 -6.252543e+05
 -1.200157e+06
 -2.157799e+06
 2.149422e+06
 1.202709e+06
 1.897196e+05
 -8.436048e+05
 1.843217e+06
 -3.621039e+05
 6.756565e+04
 1.083349e+06
 -3.984160e+05
 4.079142e+05
 1.879666e+06
 -1.907318e+06
 -1.235460e+06
 4.807536e+05
 -6.043340e+05
 7.111469e+05
 6.313018e+05
 -1.183730e+06
 -1.811447e+06
 -6.735936e+05
 5.201204e+05
 -1.381809e+06
 7.556977e+05
 2.131738e+06
 -2.147778e+06
 -1.646818e+05
 1.854508e+05
 1.051671e+05
 -7.776036e+05
 1.380024e+06
 -7.329799e+05
 -2.171223e+06
 -3.733635e+05
 3.911796e+05
 2.180381e+06
 -1.647966e+06
 1.506754e+06
 -1.502502e+06
 4.077727e+05
 1.622343e+06
 -1.537303e+06
 2.312568e+05
 -3.581802e+05
 5.111184e+05
 -1.894799e+06
 1.779770e+06
 -3.793633e+05
 9.298821e+05
 1.627292e+06
 1.570157e+06
 -1.630829e+06
 -1.581080e+06
 1.352274e+06
 1.502694e+06
 -1.654626e+06
 -1.598226e+06
 7.300454e+05
 1.503763e+05
 1.252820e+06
 -2.161033e+06
 2.075903e+06
 -2.364225e+06
 -1.270115e+06
 2.072155e+06
 -2.215058e+06
 -1.211981e+06
 2.362974e+06
 -1.695939e+06
 1.054982e+06
 1.616192e+06
 1.809632e+06
 2.114314e+06
 -1.365763e+06
 -4.647499e+05
 -1.925947e+06
 6.648231e+04
 -5.293120e+04
 1.883441e+06
 -8.832717e+05
 -1.914921e+06
 -1.905143e+06
 1.631546e+06
 1.139970e+06
 -1.845431e+06
 -3.696214e+05
 6.358086e+05
 4.217471e+05
 -4.346085e+05
 1.359025e+06
 -4.527286e+05
 -2.352176e+06
 2.384729e+06
 -5.704527e+05
 6.005844e+05
 -2.003423e+06
 6.498882e+05
 2.175096e+06
 -2.047416e+06
 -3.265230e+04
 2.169777e+06
 -7.182166e+05
 2.138657e+06
 -1.782428e+06
 8.777102e+05
 1.117174e+06
 1.631481e+06
 -1.115372e+05
 1.372195e+06
 -7.609182e+05
 -1.395792e+06
 1.314787e+06
 -1.386029e+06
 -1.604279e+06
 6.518738e+05
 1.450355e+05
 1.344445e+06
 -1.841209e+06
 8.584176e+05
 3.794092e+05
 1.690258e+06
 8.649900e+05
 1.011702e+06
 -1.212344e+06
 1.202805e+06
 1.077818e+06
 1.826748e+06
 -4.264167e+05
 -1.077477e+06
 -1.016570e+06
 -8.638493e+05
 -1.026508e+06
 -5.153708e+05
 -1.403289e+06
 -1.732660e+05
 1.179436e+06
 5.456632e+05
 -6.460634e+05
 3.533877e+05
 -6.586953e+03
 -2.359803e+06
 2.363918e+06
 -2.347245e+06
 -3.254729e+05
 2.373095e+06
 1.400917e+06
 1.525207e+05
 1.406747e+06
 -1.408024e+06
 -2.374720e+06
 -1.431177e+06
 1.364874e+06
 2.392582e+06
 4.069541e+05
 1.130380e+06
 -1.144419e+06
 -1.131136e+06
 3.442880e+05
 -7.223215e+05
 1.748495e+06
 -1.793165e+06
 -1.763628e+06
 1.749431e+06
 2.397864e+06
 -1.170073e+05
 2.402471e+06
 2.199050e+06
 -2.431296e+06
 -2.245111e+06
 -2.333818e+06
 2.193205e+06
 -2.165372e+06
 1.087808e+06
 5.207943e+05
 -2.305279e+05
 -6.820481e+05
 -1.192124e+06
 -1.067032e+05
 -2.157222e+06
 1.258542e+06
 1.384311e+06
 3.322562e+05
 4.187789e+05
 -1.271681e+06
 -5.565985e+05
 -1.286222e+06
 -1.062178e+06
 -9.298525e+05
 7.794403e+04
 -8.002649e+05
 1.371543e+06
 1.514058e+06
 2.148149e+06
 6.200360e+05
 1.643287e+06
 -6.908292e+05
 1.356853e+06
 8.578734e+05
 1.167544e+06
 -1.803378e+05
 1.690057e+06
 -1.276920e+06
 1.799088e+05
 2.100450e+06
 -6.204446e+05
 4.364955e+05
 -6.910746e+05
 6.988725e+05
 1.454290e+06
 7.448147e+05
 2.390085e+06
 -2.402672e+06
 1.466584e+06
 -1.909318e+06
 9.847111e+05
 1.644521e+06
 1.898901e+06
 -1.684633e+06
 7.332158e+04
 -2.347162e+06
 1.897736e+06
 -1.918557e+06
 -1.662618e+06
 2.179567e+06
 2.404458e+06
 -1.498076e+06
 -2.203493e+06
 -2.189688e+06
 -1.090360e+06
 -1.478654e+06
 1.804238e+06
 2.183871e+06
 -1.989343e+04
 1.478007e+06
 -1.446511e+06
 9.015006e+05
 -9.844959e+04
 1.958390e+06
 1.894713e+06
 6.399629e+05
 1.894543e+06
 8.874596e+05
 -1.001966e+06
 -9.908592e+05
 -2.217133e+06
 -2.245342e+06
 2.221214e+06
 1.254140e+06
 -1.671149e+06
 2.208404e+06
 -1.831960e+06
 -1.787899e+06
 3.237914e+05
 4.320091e+05
 -1.309536e+06
 -6.223398e+04
 8.369606e+05
 7.791530e+05
 -6.022300e+05
 2.344299e+06
 1.798475e+06
 -1.830282e+06
 -1.809708e+06
 -2.370019e+06
 1.785726e+06
 6.205085e+05
 1.566920e+06
 -7.631556e+05
 -1.094765e+06
 -1.897555e+06
 -4.265824e+05
 1.051131e+06
 -1.059425e+06
 -3.772793e+05
 -1.904086e+06
 -8.852088e+05
 1.311229e+06
 1.658252e+06
 -2.102764e+06
 -6.000403e+05
 -1.939276e+05
 5.350192e+05
 -1.070642e+06
 -1.555132e+06
 -3.732522e+05
 -3.056035e+05
 -2.402415e+05
 1.605227e+06
 -1.791456e+05
 -4.652154e+05
 3.132812e+05
 6.439802e+05
 9.760432e+05
 -9.745019e+05
 -4.793572e+05
 -1.985935e+06
 -1.996292e+06
 1.972839e+06
 -2.172437e+06
 1.059165e+06
 1.919148e+06
 1.918838e+06
 -1.926485e+06
 -1.953631e+06
 -1.142731e+06
 -5.148871e+05
 7.274310e+05
 6.096236e+05
 -1.461473e+06
 2.041529e+06
 -2.088393e+06
 1.251329e+06
 -4.943175e+05
 2.083169e+06
 4.608675e+05
 -9.918721e+05
 2.791959e+05
 -2.902639e+05
 -1.634063e+06
 -1.895242e+06
 -1.928342e+06
 2.002757e+06
 -2.024421e+06
 7.363667e+04
 -2.169141e+06
 -5.444730e+04
 1.465062e+06
 1.553163e+06
 1.259317e+04
 -4.565890e+05
 1.050444e+06
 2.405995e+06
 -1.546454e+06
 1.520925e+06
 -2.376991e+06
 -1.052372e+06
 -8.178433e+05
 3.918810e+05
 -2.363000e+06
 2.365337e+06
 8.203686e+05
 -5.581996e+05
 1.660142e+06
 1.509287e+06
 -9.373798e+05
 -1.421298e+06
 1.855318e+06
 5.393867e+05
 1.024257e+06
 -8.866360e+05
 2.026465e+06
 -1.679546e+06
 3.652614e+05
 1.663350e+06
 -1.685525e+06
 1.665244e+06
 -1.353082e+06
 -6.413832e+04
 -1.671174e+06
 1.862172e+06
 -1.173295e+06
 1.391984e+06
 1.887840e+06
 -1.840735e+06
 1.140214e+06
 -8.290923e+05
 1.820405e+06
 -9.791517e+04
 9.813907e+05
 1.132109e+05
 -2.196198e+06
 -1.498820e+06
 -9.329822e+05
 -2.154024e+06
 4.325928e+05
 -1.187579e+06
 2.948597e+05
 1.304757e+05
 9.238071e+05
 -1.626832e+06
 9.406825e+05
 -1.775365e+06
 -3.670192e+05
 1.755067e+06
 -1.890129e+05
 3.671601e+05
 -6.005892e+05
 6.099094e+05
 2.231171e+06
 -2.252287e+06
 4.195458e+05
 -2.454942e+05
 1.285272e+06
 -1.192797e+06
 1.752665e+06
 -9.134075e+05
 -1.758310e+06
 1.251632e+06
 -1.778346e+06
 8.519237e+05
 -1.197319e+06
 -9.183553e+04
 -2.990385e+05
 2.066074e+05
 -4.344733e+04
 1.773939e+06
 1.465065e+06
 -1.575209e+06
 1.356224e+05
 -1.496557e+06
 6.187735e+05
 -1.970453e+06
 1.868562e+06
 -1.953745e+05
 2.115455e+05
 9.884305e+05
 1.957185e+06
 7.089295e+05
 1.505445e+06
 1.665711e+06
 2.017025e+06
 1.269815e+06
 -2.001564e+06
 -1.636545e+06
 -4.647517e+05
 1.701443e+06
 2.393666e+06
 -1.054230e+06
 -2.378853e+06
 3.293849e+04
 -1.358002e+06
 8.713468e+05
 -1.269030e+06
 -1.220322e+04
 -1.260381e+06
 -1.851628e+06
 1.254789e+06
 -4.818750e+05
 -9.708299e+05
 1.728804e+04
 9.711717e+05
 -1.453584e+06
 3.431757e+05
 7.782290e+05
 1.329933e+06
 -3.991080e+05
 2.607596e+05
 -2.389787e+06
 2.417345e+06
 -2.841745e+05
 -1.809366e+06
 1.300656e+06
 -2.212794e+06
 -1.416473e+06
 1.101021e+05
 8.866477e+05
 -2.382177e+06
 1.050768e+06
 -1.397880e+06
 -1.058655e+06
 1.386360e+06
 2.382578e+06
 2.221613e+06
 -9.687043e+05
 1.139573e+06
 1.526534e+06
 3.642379e+05
 -1.549015e+06
 -1.541622e+06
 -7.574655e+05
 7.636286e+05
 2.003472e+06
 6.889800e+05
 -2.997513e+05
 -2.014646e+06
 -2.026261e+06
 2.002994e+06
 -6.533216e+05
 1.655701e+06
 -1.759051e+04
 2.089279e+06
 1.881063e+05
 4.137929e+05
 2.093019e+06
 2.253657e+06
 8.465042e+05
 3.453760e+05
 -8.451696e+05
 2.278299e+05
 1.203745e+06
 -1.871928e+06
 9.582041e+05
 -2.064158e+06
 -2.387045e+05
 3.379732e+05
 -5.136678e+05
 1.631379e+06
 -1.233482e+06
 2.220408e+06
 1.535883e+06
 1.004681e+06
 -1.037970e+06
 2.217816e+06
 2.194287e+06
 1.633971e+06
 2.223409e+06
 -2.107863e+06
 -2.147937e+06
 -2.091479e+06
 -1.920933e+06
 -5.963143e+04
 2.073112e+06
 8.150265e+04
 1.162607e+06
 -8.426996e+03
 -1.436029e+06
 1.962326e+06
 1.980057e+06
 4.857434e+05
 1.604777e+06
 -2.233045e+06
 6.954537e+05
 -1.636403e+06
 8.438060e+05
 -8.343799e+05
 2.387760e+06
 2.411821e+05
 2.024471e+06
 1.069705e+06
 -2.380960e+06
 -2.219110e+05
 -2.104642e+05
 -1.795374e+05
 -2.084673e+05
 9.522702e+05
 -1.280799e+06
 -6.437626e+05
 -2.857567e+05
 5.306836e+05
 1.259122e+06
 -1.415244e+06
 -2.093320e+06
 1.222844e+05
 -2.072649e+06
 -9.582340e+05
 9.331955e+05
 2.306787e+05
 -8.251956e+03
 2.000392e+06
 -8.299208e+05
 5.186822e+05
 7.364956e+05
 -2.143093e+06
 -8.095570e+05
 6.781960e+05
 -6.551778e+05
 9.721818e+05
 -1.264581e+06
 -2.221516e+06
 -1.305141e+06
 2.217393e+06
 1.291961e+06
 1.099709e+06
 1.101893e+06
 -1.098259e+06
 -2.137616e+06
 2.126900e+06
 -1.473303e+06
 -1.301450e+06
 1.287545e+06
 1.147615e+06
 2.433426e+06
 6.176734e+05
 -8.102954e+05
 -2.383834e+06
 8.244324e+05
 2.519667e+05
 -5.357431e+05
 1.696112e+06
 -1.414180e+06
 -1.641296e+06
 -1.024838e+06
 -3.509444e+05
 -8.933688e+05
 1.446985e+06
 8.966162e+05
 -1.315374e+06
 7.034475e+05
 -2.137444e+06
 -7.312811e+05
 -3.109931e+05
 -1.464245e+06
 5.895056e+05
 -6.165547e+05
 -2.041350e+06
 1.101295e+06
 -1.677829e+06
 -2.412933e+06
 1.608691e+06
 -2.373356e+06
 2.425006e+06
 1.606531e+06
 2.441343e+06
 -1.631044e+06
 -2.343748e+05
 -1.616172e+06
 1.858007e+06