<?xml version="1.0"?>
<VTKFile type="UnstructuredGrid" version="0.1">
<UnstructuredGrid>
<FieldData>
<DataArray Name="TIME" type="Float64" format="ascii" NumberOfTuples="1">
0.000000e+00
</DataArray>
</FieldData>
<FieldData>
<DataArray Name="CYCLE" type="Int32" format="ascii" NumberOfTuples="1">
0
</DataArray>
</FieldData>
<Piece NumberOfPoints="27" NumberOfCells="1">
<Points>
<DataArray NumberOfComponents="3" type="Float64" format="ascii">
0.000000e+00 0.000000e+00 0.000000e+00
5.000000e-01 0.000000e+00 0.000000e+00
1.000000e+00 0.000000e+00 0.000000e+00
0.000000e+00 5.000000e-01 0.000000e+00
5.000000e-01 5.000000e-01 0.000000e+00
1.000000e+00 5.000000e-01 0.000000e+00
0.000000e+00 1.000000e+00 0.000000e+00
5.000000e-01 1.000000e+00 0.000000e+00
1.000000e+00 1.000000e+00 0.000000e+00
0.000000e+00 0.000000e+00 5.000000e-01
5.000000e-01 0.000000e+00 5.000000e-01
1.000000e+00 0.000000e+00 5.000000e-01
0.000000e+00 5.000000e-01 5.000000e-01
5.000000e-01 5.000000e-01 5.000000e-01
1.000000e+00 5.000000e-01 5.000000e-01
0.000000e+00 1.000000e+00 5.000000e-01
5.000000e-01 1.000000e+00 5.000000e-01
1.000000e+00 1.000000e+00 5.000000e-01
0.000000e+00 0.000000e+00 1.000000e+00
5.000000e-01 0.000000e+00 1.000000e+00
1.000000e+00 0.000000e+00 1.000000e+00
0.000000e+00 5.000000e-01 1.000000e+00
5.000000e-01 5.000000e-01 1.000000e+00
1.000000e+00 5.000000e-01 1.000000e+00
0.000000e+00 1.000000e+00 1.000000e+00
5.000000e-01 1.000000e+00 1.000000e+00
1.000000e+00 1.000000e+00 1.000000e+00
</DataArray>
</Points>
<Cells>
<DataArray Name="connectivity" type="Int32" format="ascii">
0 2 8 6 18 20 26 24
</DataArray>
<DataArray Name="offsets" type="Int32" format="ascii">
8
</DataArray>
<DataArray Name="types" type="UInt8" format="ascii">
12
</DataArray>
</Cells>
<PointData>
<DataArray Name="data" type="Float64" NumberOfComponents="9" format="ascii">
0.000000e+00 0.000000e+00 0.000000e+00 0.000000e+00 0.000000e+00 0.000000e+00 0.000000e+00 0.000000e+00 0.000000e+00
0.000000e+00 0.000000e+00 0.000000e+00 0.000000e+00 0.000000e+00 0.000000e+00 0.000000e+00 0.000000e+00 0.000000e+00
1.100000e+01 2.100000e+01 3.100000e+01 1.200000e+01 2.200000e+01 3.200000e+01 1.300000e+01 2.300000e+01 3.300000e+01
0.000000e+00 0.000000e+00 0.000000e+00 0.000000e+00 0.000000e+00 0.000000e+00 0.000000e+00 0.000000e+00 0.000000e+00
0.000000e+00 0.000000e+00 0.000000e+00 0.000000e+00 0.000000e+00 0.000000e+00 0.000000e+00 0.000000e+00 0.000000e+00
0.000000e+00 0.000000e+00 0.000000e+00 0.000000e+00 0.000000e+00 0.000000e+00 0.000000e+00 0.000000e+00 0.000000e+00
0.000000e+00 0.000000e+00 0.000000e+00 0.000000e+00 0.000000e+00 0.000000e+00 0.000000e+00 0.000000e+00 0.000000e+00
0.000000e+00 0.000000e+00 0.000000e+00 0.000000e+00 0.000000e+00 0.000000e+00 0.000000e+00 0.000000e+00 0.000000e+00
1.100000e+01 2.100000e+01 3.100000e+01 1.200000e+01 2.200000e+01 3.200000e+01 1.300000e+01 2.300000e+01 3.300000e+01
0.000000e+00 0.000000e+00 0.000000e+00 0.000000e+00 0.000000e+00 0.000000e+00 0.000000e+00 0.000000e+00 0.000000e+00
0.000000e+00 0.000000e+00 0.000000e+00 0.000000e+00 0.000000e+00 0.000000e+00 0.000000e+00 0.000000e+00 0.000000e+00
0.000000e+00 0.000000e+00 0.000000e+00 0.000000e+00 0.000000e+00 0.000000e+00 0.000000e+00 0.000000e+00 0.000000e+00
0.000000e+00 0.000000e+00 0.000000e+00 0.000000e+00 0.000000e+00 0.000000e+00 0.000000e+00 0.000000e+00 0.000000e+00
0.000000e+00 0.000000e+00 0.000000e+00 0.000000e+00 0.000000e+00 0.000000e+00 0.000000e+00 0.000000e+00 0.000000e+00
0.000000e+00 0.000000e+00 0.000000e+00 0.000000e+00 0.000000e+00 0.000000e+00 0.000000e+00 0.000000e+00 0.000000e+00
0.000000e+00 0.000000e+00 0.000000e+00 0.000000e+00 0.000000e+00 0.000000e+00 0.000000e+00 0.000000e+00 0.000000e+00
0.000000e+00 0.000000e+00 0.000000e+00 0.000000e+00 0.000000e+00 0.000000e+00 0.000000e+00 0.000000e+00 0.000000e+00
0.000000e+00 0.000000e+00 0.000000e+00 0.000000e+00 0.000000e+00 0.000000e+00 0.000000e+00 0.000000e+00 0.000000e+00
0.000000e+00 0.000000e+00 0.000000e+00 0.000000e+00 0.000000e+00 0.000000e+00 0.000000e+00 0.000000e+00 0.000000e+00
0.000000e+00 0.000000e+00 0.000000e+00 0.000000e+00 0.000000e+00 0.000000e+00 0.000000e+00 0.000000e+00 0.000000e+00
1.100000e+01 2.100000e+01 3.100000e+01 1.200000e+01 2.200000e+01 3.200000e+01 1.300000e+01 2.300000e+01 3.300000e+01
0.000000e+00 0.000000e+00 0.000000e+00 0.000000e+00 0.000000e+00 0.000000e+00 0.000000e+00 0.000000e+00 0.000000e+00
0.000000e+00 0.000000e+00 0.000000e+00 0.000000e+00 0.000000e+00 0.000000e+00 0.000000e+00 0.000000e+00 0.000000e+00
0.000000e+00 0.000000e+00 0.000000e+00 0.000000e+00 0.000000e+00 0.000000e+00 0.000000e+00 0.000000e+00 0.000000e+00
0.000000e+00 0.000000e+00 0.000000e+00 0.000000e+00 0.000000e+00 0.000000e+00 0.000000e+00 0.000000e+00 0.000000e+00
0.000000e+00 0.000000e+00 0.000000e+00 0.000000e+00 0.000000e+00 0.000000e+00 0.000000e+00 0.000000e+00 0.000000e+00
1.100000e+01 2.100000e+01 3.100000e+01 1.200000e+01 2.200000e+01 3.200000e+01 1.300000e+01 2.300000e+01 3.300000e+01
</DataArray>
</PointData>
</Piece>
</UnstructuredGrid>
</VTKFile>
