<?xml version="1.0"?>
<VTKFile type="UnstructuredGrid" version="0.1">
<UnstructuredGrid>
<FieldData>
<DataArray Name="TIME" type="Float64" format="ascii" NumberOfTuples="1">
0.000000e+00
</DataArray>
</FieldData>
<FieldData>
<DataArray Name="CYCLE" type="Int32" format="ascii" NumberOfTuples="1">
0
</DataArray>
</FieldData>
<Piece NumberOfPoints="17" NumberOfCells="20">
<Points>
<DataArray NumberOfComponents="3" type="Float64" format="ascii">
1.000000e+00 1.000000e+00 0.000000e+00
1.000000e+00 6.666667e-01 0.000000e+00
1.000000e+00 3.333333e-01 0.000000e+00
1.000000e+00 0.000000e+00 0.000000e+00
6.666667e-01 0.000000e+00 0.000000e+00
3.333333e-01 0.000000e+00 0.000000e+00
0.000000e+00 0.000000e+00 0.000000e+00
0.000000e+00 1.000000e+00 0.000000e+00
0.000000e+00 6.666667e-01 0.000000e+00
0.000000e+00 3.333333e-01 0.000000e+00
3.333333e-01 1.000000e+00 0.000000e+00
6.666667e-01 1.000000e+00 0.000000e+00
7.014658e-01 2.986558e-01 0.000000e+00
3.239390e-01 2.773111e-01 0.000000e+00
3.050581e-01 6.950284e-01 0.000000e+00
7.227778e-01 6.761019e-01 0.000000e+00
5.000690e-01 5.000334e-01 0.000000e+00
</DataArray>
</Points>
<Cells>
<DataArray Name="connectivity" type="Int32" format="ascii">
11 0 15
0 1 15
1 2 15
2 12 15
2 3 12
3 4 12
12 4 13
4 5 13
5 6 13
6 9 13
7 10 14
8 7 14
9 8 14
13 9 14
10 11 14
11 15 14
16 12 13
12 16 15
16 13 14
15 16 14
</DataArray>
<DataArray Name="offsets" type="Int32" format="ascii">
3
6
9
12
15
18
21
24
27
30
33
36
39
42
45
48
51
54
57
60
</DataArray>
<DataArray Name="types" type="UInt8" format="ascii">
5
5
5
5
5
5
5
5
5
5
5
5
5
5
5
5
5
5
5
5
</DataArray>
</Cells>
<PointData>
<DataArray Name="mesh_vars/Nodes_Id" type="Float64" NumberOfComponents="1" format="ascii">
0.000000e+00
1.000000e+00
2.000000e+00
3.000000e+00
4.000000e+00
5.000000e+00
6.000000e+00
7.000000e+00
8.000000e+00
9.000000e+00
1.000000e+01
1.100000e+01
1.200000e+01
1.300000e+01
1.400000e+01
1.500000e+01
1.600000e+01
</DataArray>
<DataArray Name="mesh_vars/Nodes_Tag" type="Float64" NumberOfComponents="1" format="ascii">
0.000000e+00
0.000000e+00
0.000000e+00
0.000000e+00
0.000000e+00
0.000000e+00
0.000000e+00
0.000000e+00
0.000000e+00
0.000000e+00
0.000000e+00
0.000000e+00
0.000000e+00
0.000000e+00
0.000000e+00
0.000000e+00
0.000000e+00
</DataArray>
<DataArray Name="mesh_vars/Nodes_gDOF" type="Float64" NumberOfComponents="1" format="ascii">
0.000000e+00
1.000000e+00
2.000000e+00
3.000000e+00
4.000000e+00
5.000000e+00
6.000000e+00
7.000000e+00
8.000000e+00
9.000000e+00
1.000000e+01
1.100000e+01
1.200000e+01
1.300000e+01
1.400000e+01
1.500000e+01
1.600000e+01
</DataArray>
<DataArray Name="mesh_vars/Nodes_gNI" type="Float64" NumberOfComponents="1" format="ascii">
0.000000e+00
1.000000e+00
2.000000e+00
3.000000e+00
4.000000e+00
5.000000e+00
6.000000e+00
7.000000e+00
8.000000e+00
9.000000e+00
1.000000e+01
1.100000e+01
1.200000e+01
1.300000e+01
1.400000e+01
1.500000e+01
1.600000e+01
</DataArray>
<DataArray Name="mesh_vars/Nodes_grDfI" type="Float64" NumberOfComponents="1" format="ascii">
0.000000e+00
1.000000e+00
2.000000e+00
3.000000e+00
4.000000e+00
5.000000e+00
6.000000e+00
7.000000e+00
8.000000e+00
9.000000e+00
1.000000e+01
1.100000e+01
1.200000e+01
1.300000e+01
1.400000e+01
1.500000e+01
1.600000e+01
</DataArray>
<DataArray Name="mesh_vars/Nodes_grNI" type="Float64" NumberOfComponents="1" format="ascii">
0.000000e+00
1.000000e+00
2.000000e+00
3.000000e+00
4.000000e+00
5.000000e+00
6.000000e+00
7.000000e+00
8.000000e+00
9.000000e+00
1.000000e+01
1.100000e+01
1.200000e+01
1.300000e+01
1.400000e+01
1.500000e+01
1.600000e+01
</DataArray>
</PointData>
<CellData>
<DataArray Name="data_s" type="Float64" NumberOfComponents="1" format="ascii">
7.964815e-01
9.075926e-01
9.075926e-01
8.080812e-01
9.004886e-01
7.893775e-01
5.640238e-01
4.413130e-01
2.190908e-01
1.079797e-01
2.127971e-01
1.016860e-01
1.016860e-01
2.096657e-01
4.350193e-01
5.648342e-01
5.084912e-01
6.414375e-01
3.763553e-01
5.093016e-01
</DataArray>
<DataArray Name="data_t" type="Float64" NumberOfComponents="9" format="ascii">
8.761296e+00 1.672611e+01 0.000000e+00 9.557777e+00 1.752259e+01 0.000000e+00 0.000000e+00 0.000000e+00 0.000000e+00
9.983519e+00 1.905944e+01 0.000000e+00 1.089111e+01 1.996704e+01 0.000000e+00 0.000000e+00 0.000000e+00 0.000000e+00
9.983519e+00 1.905944e+01 0.000000e+00 1.089111e+01 1.996704e+01 0.000000e+00 0.000000e+00 0.000000e+00 0.000000e+00
8.888893e+00 1.696971e+01 0.000000e+00 9.696975e+00 1.777779e+01 0.000000e+00 0.000000e+00 0.000000e+00 0.000000e+00
9.905375e+00 1.891026e+01 0.000000e+00 1.080586e+01 1.981075e+01 0.000000e+00 0.000000e+00 0.000000e+00 0.000000e+00
8.683152e+00 1.657693e+01 0.000000e+00 9.472529e+00 1.736630e+01 0.000000e+00 0.000000e+00 0.000000e+00 0.000000e+00
6.204262e+00 1.184450e+01 0.000000e+00 6.768286e+00 1.240852e+01 0.000000e+00 0.000000e+00 0.000000e+00 0.000000e+00
4.854443e+00 9.267572e+00 0.000000e+00 5.295756e+00 9.708886e+00 0.000000e+00 0.000000e+00 0.000000e+00 0.000000e+00
2.409998e+00 4.600906e+00 0.000000e+00 2.629089e+00 4.819997e+00 0.000000e+00 0.000000e+00 0.000000e+00 0.000000e+00
1.187776e+00 2.267573e+00 0.000000e+00 1.295756e+00 2.375552e+00 0.000000e+00 0.000000e+00 0.000000e+00 0.000000e+00
2.340768e+00 4.468740e+00 0.000000e+00 2.553566e+00 4.681537e+00 0.000000e+00 0.000000e+00 0.000000e+00 0.000000e+00
1.118546e+00 2.135406e+00 0.000000e+00 1.220232e+00 2.237092e+00 0.000000e+00 0.000000e+00 0.000000e+00 0.000000e+00
1.118546e+00 2.135406e+00 0.000000e+00 1.220232e+00 2.237092e+00 0.000000e+00 0.000000e+00 0.000000e+00 0.000000e+00
2.306322e+00 4.402979e+00 0.000000e+00 2.515988e+00 4.612645e+00 0.000000e+00 0.000000e+00 0.000000e+00 0.000000e+00
4.785213e+00 9.135406e+00 0.000000e+00 5.220232e+00 9.570426e+00 0.000000e+00 0.000000e+00 0.000000e+00 0.000000e+00
6.213176e+00 1.186152e+01 0.000000e+00 6.778010e+00 1.242635e+01 0.000000e+00 0.000000e+00 0.000000e+00 0.000000e+00
5.593404e+00 1.067832e+01 0.000000e+00 6.101895e+00 1.118681e+01 0.000000e+00 0.000000e+00 0.000000e+00 0.000000e+00
7.055813e+00 1.347019e+01 0.000000e+00 7.697250e+00 1.411163e+01 0.000000e+00 0.000000e+00 0.000000e+00 0.000000e+00
4.139909e+00 7.903462e+00 0.000000e+00 4.516264e+00 8.279818e+00 0.000000e+00 0.000000e+00 0.000000e+00 0.000000e+00
5.602318e+00 1.069533e+01 0.000000e+00 6.111619e+00 1.120464e+01 0.000000e+00 0.000000e+00 0.000000e+00 0.000000e+00
</DataArray>
<DataArray Name="data_v" type="Float64" NumberOfComponents="3" format="ascii">
7.964815e-01 1.592963e+00 0.000000e+00
9.075926e-01 1.815185e+00 0.000000e+00
9.075926e-01 1.815185e+00 0.000000e+00
8.080812e-01 1.616162e+00 0.000000e+00
9.004886e-01 1.800977e+00 0.000000e+00
7.893775e-01 1.578755e+00 0.000000e+00
5.640238e-01 1.128048e+00 0.000000e+00
4.413130e-01 8.826260e-01 0.000000e+00
2.190908e-01 4.381815e-01 0.000000e+00
1.079797e-01 2.159593e-01 0.000000e+00
2.127971e-01 4.255943e-01 0.000000e+00
1.016860e-01 2.033720e-01 0.000000e+00
1.016860e-01 2.033720e-01 0.000000e+00
2.096657e-01 4.193313e-01 0.000000e+00
4.350193e-01 8.700387e-01 0.000000e+00
5.648342e-01 1.129668e+00 0.000000e+00
5.084912e-01 1.016982e+00 0.000000e+00
6.414375e-01 1.282875e+00 0.000000e+00
3.763553e-01 7.527106e-01 0.000000e+00
5.093016e-01 1.018603e+00 0.000000e+00
</DataArray>
<DataArray Name="mesh_vars/Elements_Color" type="Float64" NumberOfComponents="1" format="ascii">
4.000000e+00
3.000000e+00
0.000000e+00
2.000000e+00
1.000000e+00
4.000000e+00
0.000000e+00
1.000000e+00
5.000000e+00
4.000000e+00
4.000000e+00
5.000000e+00
0.000000e+00
2.000000e+00
3.000000e+00
1.000000e+00
3.000000e+00
5.000000e+00
6.000000e+00
7.000000e+00
</DataArray>
<DataArray Name="mesh_vars/Elements_Id" type="Float64" NumberOfComponents="1" format="ascii">
1.100000e+01
1.400000e+01
7.000000e+00
5.000000e+00
1.200000e+01
1.500000e+01
0.000000e+00
1.000000e+00
1.800000e+01
1.700000e+01
9.000000e+00
1.000000e+01
3.000000e+00
2.000000e+00
6.000000e+00
4.000000e+00
8.000000e+00
1.900000e+01
1.300000e+01
1.600000e+01
</DataArray>
<DataArray Name="mesh_vars/Elements_Owner" type="Float64" NumberOfComponents="1" format="ascii">
0.000000e+00
0.000000e+00
0.000000e+00
0.000000e+00
0.000000e+00
0.000000e+00
0.000000e+00
0.000000e+00
0.000000e+00
0.000000e+00
0.000000e+00
0.000000e+00
0.000000e+00
0.000000e+00
0.000000e+00
0.000000e+00
0.000000e+00
0.000000e+00
0.000000e+00
0.000000e+00
</DataArray>
<DataArray Name="mesh_vars/Elements_Tag" type="Float64" NumberOfComponents="1" format="ascii">
6.000000e+00
6.000000e+00
6.000000e+00
6.000000e+00
6.000000e+00
6.000000e+00
6.000000e+00
6.000000e+00
6.000000e+00
6.000000e+00
6.000000e+00
6.000000e+00
6.000000e+00
6.000000e+00
6.000000e+00
6.000000e+00
6.000000e+00
6.000000e+00
6.000000e+00
6.000000e+00
</DataArray>
</CellData>
</Piece>
</UnstructuredGrid>
</VTKFile>
