<?xml version="1.0"?>
<VTKFile type="UnstructuredGrid" version="0.1">
<UnstructuredGrid>
<FieldData>
<DataArray Name="TIME" type="Float64" format="ascii" NumberOfTuples="1">
0.000000e+00
</DataArray>
</FieldData>
<FieldData>
<DataArray Name="CYCLE" type="Int32" format="ascii" NumberOfTuples="1">
0
</DataArray>
</FieldData>
<Piece NumberOfPoints="20301" NumberOfCells="20000">
<Points>
<DataArray NumberOfComponents="3" type="Float64" format="ascii">
0.000000e+00 -0.000000e+00 0.000000e+00
0.000000e+00 -1.000000e+01 0.000000e+00
0.000000e+00 -2.000000e+01 0.000000e+00
0.000000e+00 -3.000000e+01 0.000000e+00
0.000000e+00 -4.000000e+01 0.000000e+00
0.000000e+00 -5.000000e+01 0.000000e+00
0.000000e+00 -6.000000e+01 0.000000e+00
0.000000e+00 -7.000000e+01 0.000000e+00
0.000000e+00 -8.000000e+01 0.000000e+00
0.000000e+00 -9.000000e+01 0.000000e+00
0.000000e+00 -1.000000e+02 0.000000e+00
0.000000e+00 -1.100000e+02 0.000000e+00
0.000000e+00 -1.200000e+02 0.000000e+00
0.000000e+00 -1.300000e+02 0.000000e+00
0.000000e+00 -1.400000e+02 0.000000e+00
0.000000e+00 -1.500000e+02 0.000000e+00
0.000000e+00 -1.600000e+02 0.000000e+00
0.000000e+00 -1.700000e+02 0.000000e+00
0.000000e+00 -1.800000e+02 0.000000e+00
0.000000e+00 -1.900000e+02 0.000000e+00
0.000000e+00 -2.000000e+02 0.000000e+00
0.000000e+00 -2.100000e+02 0.000000e+00
0.000000e+00 -2.200000e+02 0.000000e+00
0.000000e+00 -2.300000e+02 0.000000e+00
0.000000e+00 -2.400000e+02 0.000000e+00
0.000000e+00 -2.500000e+02 0.000000e+00
0.000000e+00 -2.600000e+02 0.000000e+00
0.000000e+00 -2.700000e+02 0.000000e+00
0.000000e+00 -2.800000e+02 0.000000e+00
0.000000e+00 -2.900000e+02 0.000000e+00
0.000000e+00 -3.000000e+02 0.000000e+00
0.000000e+00 -3.100000e+02 0.000000e+00
0.000000e+00 -3.200000e+02 0.000000e+00
0.000000e+00 -3.300000e+02 0.000000e+00
0.000000e+00 -3.400000e+02 0.000000e+00
0.000000e+00 -3.500000e+02 0.000000e+00
0.000000e+00 -3.600000e+02 0.000000e+00
0.000000e+00 -3.700000e+02 0.000000e+00
0.000000e+00 -3.800000e+02 0.000000e+00
0.000000e+00 -3.900000e+02 0.000000e+00
0.000000e+00 -4.000000e+02 0.000000e+00
0.000000e+00 -4.100000e+02 0.000000e+00
0.000000e+00 -4.200000e+02 0.000000e+00
0.000000e+00 -4.300000e+02 0.000000e+00
0.000000e+00 -4.400000e+02 0.000000e+00
0.000000e+00 -4.500000e+02 0.000000e+00
0.000000e+00 -4.600000e+02 0.000000e+00
0.000000e+00 -4.700000e+02 0.000000e+00
0.000000e+00 -4.800000e+02 0.000000e+00
0.000000e+00 -4.900000e+02 0.000000e+00
0.000000e+00 -5.000000e+02 0.000000e+00
0.000000e+00 -5.100000e+02 0.000000e+00
0.000000e+00 -5.200000e+02 0.000000e+00
0.000000e+00 -5.300000e+02 0.000000e+00
0.000000e+00 -5.400000e+02 0.000000e+00
0.000000e+00 -5.500000e+02 0.000000e+00
0.000000e+00 -5.600000e+02 0.000000e+00
0.000000e+00 -5.700000e+02 0.000000e+00
0.000000e+00 -5.800000e+02 0.000000e+00
0.000000e+00 -5.900000e+02 0.000000e+00
0.000000e+00 -6.000000e+02 0.000000e+00
0.000000e+00 -6.100000e+02 0.000000e+00
0.000000e+00 -6.200000e+02 0.000000e+00
0.000000e+00 -6.300000e+02 0.000000e+00
0.000000e+00 -6.400000e+02 0.000000e+00
0.000000e+00 -6.500000e+02 0.000000e+00
0.000000e+00 -6.600000e+02 0.000000e+00
0.000000e+00 -6.700000e+02 0.000000e+00
0.000000e+00 -6.800000e+02 0.000000e+00
0.000000e+00 -6.900000e+02 0.000000e+00
0.000000e+00 -7.000000e+02 0.000000e+00
0.000000e+00 -7.100000e+02 0.000000e+00
0.000000e+00 -7.200000e+02 0.000000e+00
0.000000e+00 -7.300000e+02 0.000000e+00
0.000000e+00 -7.400000e+02 0.000000e+00
0.000000e+00 -7.500000e+02 0.000000e+00
0.000000e+00 -7.600000e+02 0.000000e+00
0.000000e+00 -7.700000e+02 0.000000e+00
0.000000e+00 -7.800000e+02 0.000000e+00
0.000000e+00 -7.900000e+02 0.000000e+00
0.000000e+00 -8.000000e+02 0.000000e+00
0.000000e+00 -8.100000e+02 0.000000e+00
0.000000e+00 -8.200000e+02 0.000000e+00
0.000000e+00 -8.300000e+02 0.000000e+00
0.000000e+00 -8.400000e+02 0.000000e+00
0.000000e+00 -8.500000e+02 0.000000e+00
0.000000e+00 -8.600000e+02 0.000000e+00
0.000000e+00 -8.700000e+02 0.000000e+00
0.000000e+00 -8.800000e+02 0.000000e+00
0.000000e+00 -8.900000e+02 0.000000e+00
0.000000e+00 -9.000000e+02 0.000000e+00
0.000000e+00 -9.100000e+02 0.000000e+00
0.000000e+00 -9.200000e+02 0.000000e+00
0.000000e+00 -9.300000e+02 0.000000e+00
0.000000e+00 -9.400000e+02 0.000000e+00
0.000000e+00 -9.500000e+02 0.000000e+00
0.000000e+00 -9.600000e+02 0.000000e+00
0.000000e+00 -9.700000e+02 0.000000e+00
0.000000e+00 -9.800000e+02 0.000000e+00
0.000000e+00 -9.900000e+02 0.000000e+00
0.000000e+00 -1.000000e+03 0.000000e+00
1.000000e+01 -0.000000e+00 0.000000e+00
1.000000e+01 -1.000000e+01 0.000000e+00
1.000000e+01 -2.000000e+01 0.000000e+00
1.000000e+01 -3.000000e+01 0.000000e+00
1.000000e+01 -4.000000e+01 0.000000e+00
1.000000e+01 -5.000000e+01 0.000000e+00
1.000000e+01 -6.000000e+01 0.000000e+00
1.000000e+01 -7.000000e+01 0.000000e+00
1.000000e+01 -8.000000e+01 0.000000e+00
1.000000e+01 -9.000000e+01 0.000000e+00
1.000000e+01 -1.000000e+02 0.000000e+00
1.000000e+01 -1.100000e+02 0.000000e+00
1.000000e+01 -1.200000e+02 0.000000e+00
1.000000e+01 -1.300000e+02 0.000000e+00
1.000000e+01 -1.400000e+02 0.000000e+00
1.000000e+01 -1.500000e+02 0.000000e+00
1.000000e+01 -1.600000e+02 0.000000e+00
1.000000e+01 -1.700000e+02 0.000000e+00
1.000000e+01 -1.800000e+02 0.000000e+00
1.000000e+01 -1.900000e+02 0.000000e+00
1.000000e+01 -2.000000e+02 0.000000e+00
1.000000e+01 -2.100000e+02 0.000000e+00
1.000000e+01 -2.200000e+02 0.000000e+00
1.000000e+01 -2.300000e+02 0.000000e+00
1.000000e+01 -2.400000e+02 0.000000e+00
1.000000e+01 -2.500000e+02 0.000000e+00
1.000000e+01 -2.600000e+02 0.000000e+00
1.000000e+01 -2.700000e+02 0.000000e+00
1.000000e+01 -2.800000e+02 0.000000e+00
1.000000e+01 -2.900000e+02 0.000000e+00
1.000000e+01 -3.000000e+02 0.000000e+00
1.000000e+01 -3.100000e+02 0.000000e+00
1.000000e+01 -3.200000e+02 0.000000e+00
1.000000e+01 -3.300000e+02 0.000000e+00
1.000000e+01 -3.400000e+02 0.000000e+00
1.000000e+01 -3.500000e+02 0.000000e+00
1.000000e+01 -3.600000e+02 0.000000e+00
1.000000e+01 -3.700000e+02 0.000000e+00
1.000000e+01 -3.800000e+02 0.000000e+00
1.000000e+01 -3.900000e+02 0.000000e+00
1.000000e+01 -4.000000e+02 0.000000e+00
1.000000e+01 -4.100000e+02 0.000000e+00
1.000000e+01 -4.200000e+02 0.000000e+00
1.000000e+01 -4.300000e+02 0.000000e+00
1.000000e+01 -4.400000e+02 0.000000e+00
1.000000e+01 -4.500000e+02 0.000000e+00
1.000000e+01 -4.600000e+02 0.000000e+00
1.000000e+01 -4.700000e+02 0.000000e+00
1.000000e+01 -4.800000e+02 0.000000e+00
1.000000e+01 -4.900000e+02 0.000000e+00
1.000000e+01 -5.000000e+02 0.000000e+00
1.000000e+01 -5.100000e+02 0.000000e+00
1.000000e+01 -5.200000e+02 0.000000e+00
1.000000e+01 -5.300000e+02 0.000000e+00
1.000000e+01 -5.400000e+02 0.000000e+00
1.000000e+01 -5.500000e+02 0.000000e+00
1.000000e+01 -5.600000e+02 0.000000e+00
1.000000e+01 -5.700000e+02 0.000000e+00
1.000000e+01 -5.800000e+02 0.000000e+00
1.000000e+01 -5.900000e+02 0.000000e+00
1.000000e+01 -6.000000e+02 0.000000e+00
1.000000e+01 -6.100000e+02 0.000000e+00
1.000000e+01 -6.200000e+02 0.000000e+00
1.000000e+01 -6.300000e+02 0.000000e+00
1.000000e+01 -6.400000e+02 0.000000e+00
1.000000e+01 -6.500000e+02 0.000000e+00
1.000000e+01 -6.600000e+02 0.000000e+00
1.000000e+01 -6.700000e+02 0.000000e+00
1.000000e+01 -6.800000e+02 0.000000e+00
1.000000e+01 -6.900000e+02 0.000000e+00
1.000000e+01 -7.000000e+02 0.000000e+00
1.000000e+01 -7.100000e+02 0.000000e+00
1.000000e+01 -7.200000e+02 0.000000e+00
1.000000e+01 -7.300000e+02 0.000000e+00
1.000000e+01 -7.400000e+02 0.000000e+00
1.000000e+01 -7.500000e+02 0.000000e+00
1.000000e+01 -7.600000e+02 0.000000e+00
1.000000e+01 -7.700000e+02 0.000000e+00
1.000000e+01 -7.800000e+02 0.000000e+00
1.000000e+01 -7.900000e+02 0.000000e+00
1.000000e+01 -8.000000e+02 0.000000e+00
1.000000e+01 -8.100000e+02 0.000000e+00
1.000000e+01 -8.200000e+02 0.000000e+00
1.000000e+01 -8.300000e+02 0.000000e+00
1.000000e+01 -8.400000e+02 0.000000e+00
1.000000e+01 -8.500000e+02 0.000000e+00
1.000000e+01 -8.600000e+02 0.000000e+00
1.000000e+01 -8.700000e+02 0.000000e+00
1.000000e+01 -8.800000e+02 0.000000e+00
1.000000e+01 -8.900000e+02 0.000000e+00
1.000000e+01 -9.000000e+02 0.000000e+00
1.000000e+01 -9.100000e+02 0.000000e+00
1.000000e+01 -9.200000e+02 0.000000e+00
1.000000e+01 -9.300000e+02 0.000000e+00
1.000000e+01 -9.400000e+02 0.000000e+00
1.000000e+01 -9.500000e+02 0.000000e+00
1.000000e+01 -9.600000e+02 0.000000e+00
1.000000e+01 -9.700000e+02 0.000000e+00
1.000000e+01 -9.800000e+02 0.000000e+00
1.000000e+01 -9.900000e+02 0.000000e+00
1.000000e+01 -1.000000e+03 0.000000e+00
2.000000e+01 -0.000000e+00 0.000000e+00
2.000000e+01 -1.000000e+01 0.000000e+00
2.000000e+01 -2.000000e+01 0.000000e+00
2.000000e+01 -3.000000e+01 0.000000e+00
2.000000e+01 -4.000000e+01 0.000000e+00
2.000000e+01 -5.000000e+01 0.000000e+00
2.000000e+01 -6.000000e+01 0.000000e+00
2.000000e+01 -7.000000e+01 0.000000e+00
2.000000e+01 -8.000000e+01 0.000000e+00
2.000000e+01 -9.000000e+01 0.000000e+00
2.000000e+01 -1.000000e+02 0.000000e+00
2.000000e+01 -1.100000e+02 0.000000e+00
2.000000e+01 -1.200000e+02 0.000000e+00
2.000000e+01 -1.300000e+02 0.000000e+00
2.000000e+01 -1.400000e+02 0.000000e+00
2.000000e+01 -1.500000e+02 0.000000e+00
2.000000e+01 -1.600000e+02 0.000000e+00
2.000000e+01 -1.700000e+02 0.000000e+00
2.000000e+01 -1.800000e+02 0.000000e+00
2.000000e+01 -1.900000e+02 0.000000e+00
2.000000e+01 -2.000000e+02 0.000000e+00
2.000000e+01 -2.100000e+02 0.000000e+00
2.000000e+01 -2.200000e+02 0.000000e+00
2.000000e+01 -2.300000e+02 0.000000e+00
2.000000e+01 -2.400000e+02 0.000000e+00
2.000000e+01 -2.500000e+02 0.000000e+00
2.000000e+01 -2.600000e+02 0.000000e+00
2.000000e+01 -2.700000e+02 0.000000e+00
2.000000e+01 -2.800000e+02 0.000000e+00
2.000000e+01 -2.900000e+02 0.000000e+00
2.000000e+01 -3.000000e+02 0.000000e+00
2.000000e+01 -3.100000e+02 0.000000e+00
2.000000e+01 -3.200000e+02 0.000000e+00
2.000000e+01 -3.300000e+02 0.000000e+00
2.000000e+01 -3.400000e+02 0.000000e+00
2.000000e+01 -3.500000e+02 0.000000e+00
[...]
<PointData>
<DataArray Name="res_pot" type="Float64" NumberOfComponents="1" format="ascii">
0.000000e+00
0.000000e+00
0.000000e+00
0.000000e+00
0.000000e+00
0.000000e+00
0.000000e+00
0.000000e+00
0.000000e+00
0.000000e+00
0.000000e+00
0.000000e+00
0.000000e+00
0.000000e+00
0.000000e+00
0.000000e+00
0.000000e+00
0.000000e+00
0.000000e+00
0.000000e+00
0.000000e+00
0.000000e+00
0.000000e+00
0.000000e+00
0.000000e+00
0.000000e+00
0.000000e+00
0.000000e+00
0.000000e+00
0.000000e+00
0.000000e+00
0.000000e+00
0.000000e+00
0.000000e+00
0.000000e+00
0.000000e+00
0.000000e+00
0.000000e+00
0.000000e+00
0.000000e+00
0.000000e+00
0.000000e+00
0.000000e+00
0.000000e+00
0.000000e+00
0.000000e+00
0.000000e+00
0.000000e+00
0.000000e+00
0.000000e+00
0.000000e+00
0.000000e+00
0.000000e+00
0.000000e+00
0.000000e+00
0.000000e+00
0.000000e+00
0.000000e+00
0.000000e+00
0.000000e+00
0.000000e+00
0.000000e+00
0.000000e+00
0.000000e+00
0.000000e+00
0.000000e+00
0.000000e+00
0.000000e+00
0.000000e+00
0.000000e+00
0.000000e+00
0.000000e+00
0.000000e+00
0.000000e+00
0.000000e+00
0.000000e+00
0.000000e+00
0.000000e+00
0.000000e+00
0.000000e+00
0.000000e+00
0.000000e+00
0.000000e+00
0.000000e+00
0.000000e+00
0.000000e+00
0.000000e+00
0.000000e+00
0.000000e+00
0.000000e+00
0.000000e+00
0.000000e+00
0.000000e+00
0.000000e+00
0.000000e+00
0.000000e+00
0.000000e+00
0.000000e+00
0.000000e+00
0.000000e+00
0.000000e+00
6.351136e+00
6.348692e+00
6.341370e+00
6.329199e+00
6.312228e+00
6.290523e+00
6.264169e+00
6.233269e+00
6.197941e+00
6.158319e+00
6.114548e+00
6.066789e+00
6.015212e+00
5.959996e+00
5.901329e+00
5.839404e+00
5.774421e+00
5.706582e+00
5.636090e+00
5.563151e+00
5.487968e+00
5.410744e+00
5.331677e+00
5.250963e+00
5.168792e+00
5.085349e+00
5.000810e+00
4.915349e+00
4.829127e+00
4.742302e+00
4.655021e+00
4.567424e+00
4.479641e+00
4.391797e+00
4.304004e+00
4.216369e+00
4.128991e+00
4.041958e+00
3.955353e+00
3.869251e+00
3.783719e+00
3.698817e+00
3.614599e+00
3.531113e+00
3.448400e+00
3.366496e+00
3.285432e+00
3.205232e+00
3.125919e+00
3.047508e+00
2.970012e+00
2.893440e+00
2.817798e+00
2.743088e+00
2.669308e+00
2.596456e+00
2.524526e+00
2.453511e+00
2.383399e+00
2.314181e+00
2.245842e+00
2.178367e+00
2.111741e+00
2.045947e+00
1.980966e+00
1.916781e+00
1.853369e+00
1.790713e+00
1.728790e+00
1.667579e+00
1.607059e+00
1.547207e+00
1.488000e+00
1.429417e+00
1.371434e+00
1.314029e+00
1.257179e+00
1.200860e+00
1.145050e+00
1.089725e+00
1.034863e+00
9.804404e-01
9.264349e-01
8.728234e-01
8.195833e-01
7.666919e-01
7.141267e-01
6.618652e-01
6.098852e-01
5.581644e-01
5.066804e-01
4.554114e-01
4.043351e-01
3.534295e-01
3.026726e-01
2.520424e-01
2.015166e-01
1.510730e-01
1.006889e-01
5.034045e-02
0.000000e+00
1.269521e+01
1.269032e+01
1.267568e+01
1.265135e+01
1.261743e+01
1.257404e+01
1.252136e+01
1.245959e+01
1.238897e+01
1.230977e+01
1.222228e+01
1.212681e+01
1.202372e+01
1.191335e+01
1.179609e+01
1.167232e+01
1.154243e+01
1.140684e+01
1.126595e+01
1.112017e+01
1.096990e+01
1.081556e+01
1.065754e+01
1.049623e+01
1.033200e+01
1.016524e+01
9.996284e+00
9.825489e+00
9.653175e+00
9.479655e+00
9.305225e+00
9.130164e+00
8.954733e+00
8.779177e+00
8.603725e+00
8.428589e+00
8.253963e+00
8.080029e+00
7.906949e+00
7.734873e+00
7.563934e+00
7.394254e+00
7.225940e+00
7.059087e+00
6.893777e+00
6.730083e+00
6.568064e+00
6.407773e+00
6.249251e+00
6.092531e+00
5.937639e+00
5.784591e+00
5.633399e+00
5.484068e+00
5.336596e+00
5.190976e+00
5.047197e+00
4.905245e+00
4.765098e+00
4.626733e+00
4.490125e+00
4.355244e+00
4.222058e+00
4.090532e+00
3.960632e+00
3.832319e+00
3.705553e+00
3.580294e+00
3.456501e+00
3.334130e+00
3.213137e+00
3.093480e+00
2.975113e+00
2.857990e+00
2.742067e+00
2.627298e+00
2.513636e+00
2.401037e+00
2.289454e+00
2.178840e+00
2.069151e+00
1.960340e+00
1.852362e+00
1.745171e+00
1.638722e+00
1.532970e+00
1.427869e+00
1.323375e+00
1.219444e+00
1.116030e+00
1.013089e+00
9.105780e-01
8.084518e-01
7.066666e-01
6.051786e-01
5.039436e-01
4.029175e-01
3.020558e-01
2.013135e-01
1.006443e-01
0.000000e+00
1.903584e+01
1.902851e+01
1.900654e+01
1.897002e+01
1.891910e+01
1.885398e+01
1.877492e+01
1.868221e+01
1.857623e+01
1.845737e+01
1.832607e+01
1.818281e+01
1.802810e+01
1.786249e+01
1.768654e+01
1.750083e+01
1.730596e+01
1.710253e+01
1.689116e+01
1.667247e+01
1.644706e+01
1.621554e+01
1.597852e+01
1.573656e+01
1.549026e+01
1.524015e+01
1.498677e+01
1.473063e+01
1.447223e+01
1.421203e+01
1.395047e+01
1.368798e+01
1.342493e+01
1.316171e+01
1.289865e+01
1.263607e+01
1.237427e+01
1.211350e+01
1.185402e+01
1.159605e+01
1.133979e+01
1.108541e+01
1.083309e+01
1.058296e+01
1.033515e+01
1.008976e+01
9.846889e+00
9.606604e+00
9.368972e+00
9.134042e+00
8.901852e+00
8.672427e+00
8.445785e+00
8.221930e+00
8.000862e+00
7.782570e+00
7.567038e+00
7.354241e+00
7.144151e+00
6.936731e+00
6.731944e+00
6.529743e+00
6.330082e+00
6.132910e+00
5.938172e+00
5.745812e+00
5.555771e+00
5.367988e+00
5.182399e+00
4.998942e+00
4.817551e+00
4.638159e+00
4.460701e+00
4.285106e+00
4.111310e+00
3.939241e+00
3.768832e+00
3.600014e+00
3.432719e+00
3.266876e+00
3.102418e+00
2.939276e+00
2.777382e+00
2.616667e+00
2.457063e+00
2.298504e+00
2.140920e+00
1.984246e+00
1.828413e+00
1.673357e+00
1.519009e+00
1.365305e+00
1.212178e+00
1.059561e+00
9.073897e-01
7.555977e-01
6.041189e-01
4.528870e-01
3.018352e-01
1.508957e-01
0.000000e+00
2.537656e+01
2.536676e+01
2.533742e+01
2.528864e+01
2.522063e+01
2.513366e+01
2.502806e+01
2.490426e+01
2.476273e+01
2.460400e+01
2.442868e+01
2.423739e+01
2.403084e+01
2.380974e+01
2.357485e+01
2.332695e+01
2.306684e+01
2.279533e+01
2.251324e+01
2.222139e+01
2.192061e+01
2.161170e+01
2.129547e+01
2.097268e+01
2.064411e+01
2.031049e+01
1.997254e+01
1.963093e+01
1.928632e+01
1.893934e+01
1.859057e+01
1.824057e+01
1.788986e+01
1.753893e+01
1.718824e+01
1.683820e+01
1.648921e+01
1.614163e+01
1.579577e+01
1.545193e+01
1.511039e+01
1.477138e+01
1.443511e+01
1.410178e+01
1.377153e+01
1.344453e+01
1.312088e+01
1.280070e+01
1.248405e+01
1.217101e+01
1.186162e+01
1.155592e+01
1.125393e+01
1.095566e+01
1.066110e+01
1.037025e+01
1.008307e+01
9.799539e+00
9.519613e+00
9.243248e+00
8.970388e+00
8.700976e+00
8.434948e+00
8.172235e+00
7.912764e+00
7.656461e+00
7.403246e+00
7.153039e+00
6.905755e+00
6.661309e+00
6.419615e+00
6.180584e+00
5.944128e+00
5.710154e+00
5.478573e+00
5.249295e+00
5.022226e+00
4.797276e+00
4.574353e+00
4.353365e+00
4.134221e+00
3.916828e+00
3.701097e+00
3.486936e+00
3.274256e+00
3.062964e+00
2.852973e+00
2.644192e+00
2.436533e+00
2.229907e+00
2.024224e+00
1.819398e+00
1.615340e+00
1.411962e+00
1.209178e+00
1.006898e+00
8.050366e-01
6.035044e-01
4.022136e-01
2.010752e-01
0.000000e+00
3.172074e+01
3.170846e+01
3.167168e+01
3.161054e+01
3.152529e+01
3.141627e+01
3.128392e+01
3.112875e+01
3.095137e+01
3.075246e+01
3.053276e+01
3.029309e+01
3.003430e+01
2.975731e+01
2.946307e+01
2.915257e+01
2.882680e+01
2.848679e+01
2.813358e+01
2.776818e+01
2.739164e+01
2.700497e+01
2.660916e+01
2.620520e+01
2.579405e+01
2.537662e+01
2.495381e+01
2.452647e+01
2.409543e+01
2.366145e+01
2.322528e+01
2.278761e+01
2.234909e+01
2.191033e+01
2.147190e+01
2.103432e+01
2.059809e+01
2.016364e+01
1.973137e+01
1.930167e+01
1.887485e+01
1.845122e+01
1.803103e+01
1.761453e+01
1.720192e+01
1.679336e+01
1.638902e+01
1.598901e+01
1.559344e+01
1.520238e+01
1.481590e+01
1.443403e+01
1.405681e+01
1.368423e+01
1.331631e+01
1.295301e+01
1.259431e+01
1.224017e+01
1.189054e+01
1.154535e+01
1.120455e+01
1.086805e+01
1.053579e+01
1.020766e+01
9.883582e+00
9.563462e+00
9.247199e+00
8.934691e+00
8.625835e+00
8.320524e+00
8.018647e+00
7.720096e+00
7.424758e+00
7.132522e+00
6.843272e+00
6.556896e+00
6.273279e+00
5.992307e+00
5.713865e+00
5.437838e+00
5.164113e+00
4.892574e+00
4.623110e+00
4.355605e+00
4.089947e+00
3.826024e+00
3.563723e+00
3.302933e+00
3.043542e+00
2.785441e+00
2.528517e+00
2.272663e+00
2.017767e+00
1.763721e+00
1.510415e+00
1.257740e+00
1.005586e+00
7.538455e-01
5.024074e-01
2.511623e-01
0.000000e+00
3.807167e+01
3.805688e+01
3.801257e+01
3.793891e+01
3.783621e+01
3.770489e+01
3.754547e+01
3.735857e+01
3.714495e+01
3.690540e+01
3.664085e+01
3.635228e+01
3.604073e+01
3.570730e+01
3.535315e+01
3.497947e+01
3.458747e+01
3.417840e+01
3.375348e+01
3.331398e+01
3.286113e+01
3.239616e+01
3.192028e+01
3.143467e+01
3.094047e+01
3.043880e+01
2.993072e+01
2.941728e+01
2.889944e+01
2.837815e+01
2.785429e+01
2.732868e+01
2.680212e+01
2.627533e+01
2.574899e+01
2.522373e+01
2.470013e+01
2.417871e+01
2.365997e+01
2.314434e+01
2.263221e+01
2.212395e+01
2.161986e+01
2.112022e+01
2.062527e+01
2.013522e+01
1.965024e+01
1.917049e+01
1.869608e+01
1.822710e+01
1.776363e+01
1.730571e+01
1.685337e+01
1.640663e+01
1.596546e+01
1.552986e+01
1.509978e+01
1.467517e+01
1.425597e+01
1.384211e+01
1.343352e+01
1.303008e+01
1.263173e+01
1.223833e+01
1.184980e+01
1.146601e+01
1.108685e+01
1.071219e+01
1.034191e+01
9.975879e+00
9.613964e+00
9.256036e+00
8.901959e+00
8.551600e+00
8.204820e+00
7.861484e+00
7.521454e+00
7.184593e+00
6.850765e+00
6.519830e+00
6.191653e+00
5.866096e+00
5.543024e+00
5.222299e+00
4.903788e+00
4.587354e+00
4.272864e+00
3.960184e+00
3.649181e+00
3.339721e+00
3.031674e+00
2.724907e+00
2.419288e+00
2.114687e+00
1.810973e+00
1.508016e+00
1.205684e+00
9.038471e-01
6.023749e-01
3.011362e-01
0.000000e+00
4.443251e+01
4.441516e+01
4.436320e+01
4.427684e+01
4.415644e+01
4.400248e+01
4.381558e+01
4.359651e+01
4.334612e+01
4.306538e+01
4.275537e+01
4.241725e+01
4.205225e+01
4.166169e+01
4.124691e+01
4.080933e+01
4.035036e+01
3.987148e+01
3.937414e+01
3.885982e+01
3.832996e+01
3.778602e+01
3.722940e+01
3.666150e+01
3.608366e+01
3.549718e+01
3.490331e+01
3.430326e+01
3.369818e+01
3.308915e+01
3.247721e+01
3.186333e+01
3.124841e+01
3.063331e+01
3.001882e+01
2.940567e+01
2.879452e+01
2.818600e+01
2.758066e+01
2.697901e+01
2.638152e+01
2.578858e+01
2.520056e+01
2.461778e+01
2.404053e+01
2.346902e+01
2.290347e+01
2.234405e+01
2.179089e+01
2.124410e+01
2.070375e+01
2.016990e+01
1.964258e+01
1.912180e+01
1.860754e+01
1.809978e+01
1.759847e+01
1.710356e+01
1.661496e+01
1.613260e+01
1.565637e+01
1.518617e+01
1.472190e+01
1.426341e+01
1.381060e+01
1.336331e+01
1.292142e+01
1.248479e+01
1.205325e+01
1.162667e+01
1.120488e+01
1.078775e+01
1.037510e+01
9.966778e+00
9.562632e+00
9.162497e+00
8.766213e+00
8.373623e+00
7.984563e+00
7.598875e+00
7.216399e+00
6.836975e+00
6.460443e+00
6.086648e+00
5.715428e+00
5.346629e+00
4.980093e+00
4.615665e+00
4.253190e+00
3.892513e+00
3.533479e+00
3.175937e+00
2.819732e+00
2.464712e+00
2.110726e+00
1.757620e+00
1.405244e+00
1.053446e+00
7.020741e-01
3.509760e-01
0.000000e+00
5.080628e+01
5.078634e+01
5.072660e+01
5.062730e+01
5.048886e+01
5.031186e+01
5.009702e+01
4.984521e+01
4.955742e+01
4.923481e+01
4.887860e+01
4.849015e+01
4.807089e+01
4.762233e+01
4.714605e+01
4.664367e+01
4.611684e+01
4.556726e+01
4.499662e+01
4.440659e+01
4.379888e+01
4.317513e+01
4.253699e+01
4.188603e+01
4.122382e+01
4.055183e+01
3.987152e+01
3.918426e+01
3.849136e+01
3.779408e+01
3.709359e+01
3.639099e+01
3.568733e+01
3.498357e+01
3.428062e+01
3.357930e+01
3.288038e+01
3.218456e+01
3.149247e+01
3.080469e+01
3.012173e+01
2.944406e+01
2.877208e+01
2.810616e+01
2.744660e+01
2.679368e+01
2.614762e+01
2.550860e+01
2.487678e+01
2.425228e+01
2.363517e+01
2.302552e+01
2.242336e+01
2.182869e+01
2.124150e+01
2.066175e+01
2.008940e+01
1.952435e+01
1.896654e+01
1.841586e+01
1.787219e+01
1.733542e+01
1.680542e+01
1.628204e+01
1.576514e+01
1.525456e+01
1.475014e+01
1.425172e+01
1.375912e+01
1.327218e+01
1.279072e+01
1.231457e+01
1.184354e+01
1.137745e+01
1.091612e+01
1.045938e+01
1.000702e+01
9.558884e+00
9.114774e+00
8.674510e+00
8.237910e+00
7.804793e+00
7.374977e+00
6.948279e+00
6.524521e+00
6.103524e+00
5.685109e+00
5.269097e+00
4.855312e+00
4.443578e+00
4.033719e+00
3.625561e+00
3.218928e+00
2.813647e+00
2.409545e+00
2.006448e+00
1.604184e+00
1.202580e+00
8.014631e-01
4.006607e-01
0.000000e+00
5.719591e+01
5.717332e+01
5.710562e+01
5.699312e+01
5.683628e+01
5.663576e+01
5.639240e+01
5.610718e+01
5.578127e+01
5.541597e+01
5.501269e+01
5.457298e+01
5.409848e+01
5.359093e+01
5.305212e+01
5.248389e+01
5.188816e+01
5.126682e+01
5.062182e+01
4.995507e+01
4.926850e+01
4.856398e+01
4.784336e+01
4.710845e+01
4.636100e+01
4.560270e+01
4.483517e+01
4.405998e+01
4.327861e+01
4.249245e+01
4.170284e+01
4.091101e+01
4.011815e+01
3.932532e+01
3.853355e+01
3.774375e+01
3.695678e+01
3.617343e+01
3.539439e+01
3.462032e+01
3.385178e+01
3.308929e+01
3.233331e+01
3.158422e+01
3.084238e+01
3.010807e+01
2.938155e+01
2.866301e+01
2.795263e+01
2.725052e+01
2.655679e+01
2.587148e+01
2.519464e+01
2.452625e+01
2.386631e+01
2.321476e+01
2.257154e+01
2.193656e+01
2.130974e+01
2.069094e+01
2.008006e+01
1.947693e+01
1.888142e+01
1.829337e+01
1.771260e+01
1.713894e+01
1.657221e+01
1.601223e+01
1.545879e+01
1.491172e+01
1.437080e+01
1.383585e+01
1.330665e+01
1.278301e+01
1.226471e+01
1.175156e+01
1.124335e+01
1.073987e+01
1.024091e+01
9.746273e+00
9.255750e+00
8.769137e+00
8.286230e+00
7.806826e+00
7.330721e+00
6.857716e+00
6.387608e+00
5.920199e+00
5.455290e+00
4.992683e+00
4.532181e+00
4.073588e+00
3.616707e+00
3.161344e+00
2.707304e+00
2.254394e+00
1.802419e+00
1.351185e+00
9.004999e-01
4.501694e-01
0.000000e+00
6.360418e+01
6.357887e+01
6.350303e+01
6.337701e+01
6.320132e+01
6.297674e+01
6.270419e+01
6.238482e+01
6.201993e+01
6.161100e+01
6.115964e+01
6.066761e+01
6.013676e+01
5.956905e+01
5.896651e+01
5.833125e+01
5.766538e+01
5.697109e+01
5.625053e+01
5.550588e+01
5.473929e+01
5.395287e+01
5.314870e+01
5.232880e+01
5.149513e+01
5.064958e+01
4.979397e+01
4.893003e+01
4.805941e+01
4.718368e+01
4.630430e+01
4.542266e+01
4.454006e+01
4.365769e+01
4.277667e+01
4.189803e+01
4.102270e+01
4.015155e+01
3.928535e+01
3.842481e+01
3.757056e+01
3.672315e+01
3.588309e+01
3.505081e+01
3.422668e+01
3.341102e+01
3.260409e+01
3.180612e+01
3.101728e+01
3.023770e+01
2.946748e+01
2.870667e+01
2.795531e+01
2.721339e+01
2.648089e+01
2.575774e+01
2.504387e+01
2.433919e+01
2.364358e+01
2.295691e+01
2.227904e+01
2.160980e+01
2.094902e+01
2.029654e+01
1.965215e+01
1.901566e+01
1.838687e+01
1.776556e+01
1.715154e+01
1.654457e+01
1.594444e+01
1.535093e+01
1.476381e+01
1.418285e+01
1.360782e+01
1.303850e+01
1.247466e+01
1.191606e+01
1.136249e+01
1.081370e+01
1.026948e+01
9.729592e+00
9.193814e+00
8.661919e+00
8.133682e+00
7.608881e+00
7.087293e+00
6.568696e+00
6.052870e+00
5.539595e+00
5.028654e+00
4.519828e+00
4.012901e+00
3.507656e+00
3.003879e+00
2.501353e+00
1.999865e+00
1.499199e+00
9.991429e-01
4.994812e-01
0.000000e+00
7.003373e+01
7.000563e+01
6.992143e+01
6.978152e+01
6.958651e+01
6.933723e+01
6.903474e+01
6.868034e+01
6.827551e+01
6.782188e+01
6.732130e+01
6.677573e+01
6.618726e+01
6.555807e+01
6.489047e+01
6.418680e+01
6.344944e+01
6.268081e+01
6.188335e+01
6.105947e+01
6.021156e+01
5.934199e+01
5.845305e+01
5.754700e+01
5.662601e+01
5.569216e+01
5.474747e+01
5.379387e+01
5.283315e+01
5.186705e+01
5.089719e+01
4.992508e+01
4.895215e+01
4.797971e+01
4.700898e+01
4.604108e+01
4.507704e+01
4.411779e+01
4.316418e+01
4.221698e+01
4.127686e+01
4.034443e+01
3.942023e+01
3.850472e+01
3.759831e+01
3.670132e+01
3.581406e+01
3.493674e+01
3.406955e+01
3.321264e+01
3.236608e+01
3.152995e+01
3.070427e+01
2.988902e+01
2.908417e+01
2.828965e+01
2.750537e+01
2.673123e+01
2.596708e+01
2.521280e+01
2.446819e+01
2.373310e+01
2.300733e+01
2.229068e+01
2.158294e+01
2.088389e+01
2.019331e+01
1.951097e+01
1.883662e+01
1.817003e+01
1.751096e+01
1.685916e+01
1.621437e+01
1.557636e+01
1.494486e+01
1.431964e+01
1.370042e+01
1.308697e+01
1.247903e+01
1.187634e+01
1.127867e+01
1.068575e+01
1.009734e+01
9.513194e+00
8.933063e+00
8.356701e+00
7.783864e+00
7.214310e+00
6.647796e+00
6.084082e+00
5.522927e+00
4.964093e+00
4.407342e+00
3.852437e+00
3.299142e+00
2.747221e+00
2.196439e+00
1.646560e+00
1.097351e+00
5.485755e-01
0.000000e+00
7.648706e+01
7.645609e+01
7.636329e+01
7.620909e+01
7.599417e+01
7.571949e+01
7.538622e+01
7.499583e+01
7.454994e+01
7.405044e+01
7.349935e+01
7.289887e+01
7.225135e+01
7.155923e+01
7.082506e+01
7.005145e+01
6.924106e+01
6.839658e+01
6.752070e+01
6.661610e+01
6.568544e+01
6.473132e+01
6.375627e+01
6.276278e+01
6.175323e+01
6.072994e+01
5.969510e+01
5.865080e+01
5.759905e+01
5.654172e+01
5.548058e+01
5.441729e+01
5.335338e+01
5.229029e+01
5.122934e+01
5.017175e+01
4.911861e+01
4.807094e+01
4.702966e+01
4.599558e+01
4.496943e+01
4.395187e+01
4.294346e+01
4.194469e+01
4.095600e+01
3.997774e+01
3.901021e+01
3.805364e+01
3.710824e+01
3.617414e+01
3.525143e+01
3.434016e+01
3.344036e+01
3.255201e+01
3.167506e+01
3.080942e+01
2.995499e+01
2.911166e+01
2.827925e+01
2.745763e+01
2.664658e+01
2.584593e+01
2.505546e+01
2.427495e+01
2.350415e+01
2.274285e+01
2.199077e+01
2.124768e+01
2.051331e+01
1.978740e+01
1.906968e+01
1.835988e+01
1.765773e+01
1.696295e+01
1.627527e+01
1.559441e+01
1.492011e+01
1.425208e+01
1.359004e+01
1.293373e+01
1.228288e+01
1.163720e+01
1.099642e+01
1.036029e+01
9.728522e+00
9.100857e+00
8.477028e+00
7.856769e+00
7.239818e+00
6.625912e+00
6.014791e+00
5.406194e+00
4.799864e+00
4.195542e+00
3.592971e+00
2.991896e+00
2.392059e+00
1.793206e+00
1.195082e+00
5.974316e-01
0.000000e+00
8.296651e+01
8.293256e+01
8.283089e+01
8.266195e+01
8.242651e+01
8.212563e+01
8.176064e+01
8.133315e+01
8.084502e+01
8.029829e+01
7.969526e+01
7.903837e+01
7.833022e+01
7.757352e+01
7.677111e+01
7.592588e+01
7.504077e+01
7.411876e+01
7.316281e+01
7.217587e+01
7.116087e+01
7.012065e+01
6.905802e+01
6.797569e+01
6.687626e+01
6.576225e+01
6.463607e+01
6.350000e+01
6.235619e+01
6.120670e+01
6.005343e+01
5.889817e+01
5.774260e+01
5.658825e+01
5.543653e+01
5.428877e+01
5.314613e+01
5.200971e+01
5.088048e+01
4.975930e+01
4.864696e+01
4.754414e+01
4.645145e+01
4.536941e+01
4.429846e+01
4.323897e+01
4.219126e+01
4.115557e+01
4.013210e+01
3.912098e+01
3.812231e+01
3.713613e+01
3.616245e+01
3.520125e+01
3.425245e+01
3.331597e+01
3.239168e+01
3.147944e+01
3.057909e+01
2.969043e+01
2.881326e+01
2.794737e+01
2.709252e+01
2.624846e+01
2.541494e+01
2.459170e+01
2.377846e+01
2.297495e+01
2.218088e+01
2.139597e+01
2.061992e+01
1.985244e+01
1.909324e+01
1.834201e+01
1.759846e+01
1.686229e+01
1.613320e+01
1.541089e+01
1.469506e+01
1.398543e+01
1.328168e+01
1.258353e+01
1.189068e+01
1.120284e+01
1.051972e+01
9.841033e+00
9.166488e+00
8.495800e+00
7.828684e+00
7.164857e+00
6.504038e+00
5.845946e+00
5.190302e+00
4.536826e+00
3.885242e+00
3.235273e+00
2.586643e+00
1.939075e+00
1.292296e+00
6.460291e-01
0.000000e+00
8.947423e+01
8.943722e+01
8.932636e+01
8.914217e+01
8.888552e+01
8.855756e+01
8.815981e+01
8.769402e+01
8.716228e+01
8.656687e+01
8.591032e+01
8.519534e+01
8.442481e+01
8.360175e+01
8.272928e+01
8.181058e+01
8.084890e+01
7.984751e+01
7.880967e+01
7.773862e+01
7.663755e+01
7.550959e+01
7.435778e+01
7.318508e+01
7.199433e+01
7.078826e+01
6.956947e+01
6.834044e+01
6.710349e+01
6.586083e+01
6.461453e+01
6.336650e+01
6.211852e+01
6.087225e+01
5.962921e+01
5.839078e+01
5.715823e+01
5.593270e+01
5.471523e+01
5.350674e+01
5.230804e+01
5.111987e+01
4.994284e+01
4.877750e+01
4.762432e+01
4.648368e+01
4.535590e+01
4.424122e+01
4.313985e+01
4.205191e+01
4.097750e+01
3.991665e+01
3.886935e+01
3.783556e+01
3.681522e+01
3.580819e+01
3.481436e+01
3.383355e+01
3.286557e+01
3.191022e+01
3.096727e+01
3.003649e+01
2.911760e+01
2.821036e+01
2.731446e+01
2.642964e+01
2.555560e+01
2.469202e+01
2.383860e+01
2.299504e+01
2.216101e+01
2.133620e+01
2.052028e+01
1.971294e+01
1.891386e+01
1.812271e+01
1.733916e+01
1.656290e+01
1.579361e+01
1.503097e+01
1.427465e+01
1.352434e+01
1.277973e+01
1.204049e+01
1.130632e+01
1.057692e+01
9.851954e+00
9.131133e+00
8.414146e+00
7.700692e+00
6.990465e+00
6.283165e+00
5.578492e+00
4.876147e+00
4.175833e+00
3.477252e+00
2.780109e+00
2.084107e+00
1.388952e+00
6.943477e-01
0.000000e+00
9.601218e+01
9.597200e+01
9.585162e+01
9.565164e+01
9.537300e+01
9.501701e+01
9.458532e+01
9.407993e+01
9.350309e+01
9.285738e+01
9.214557e+01
9.137067e+01
9.053587e+01
8.964449e+01
8.869994e+01
8.770576e+01