<?xml version="1.0"?>
<VTKFile type="UnstructuredGrid" version="0.1">
<UnstructuredGrid>
<Piece NumberOfPoints="1281" NumberOfCells="400">
<Points>
<DataArray NumberOfComponents="3" type="Float64" format="ascii">
 0.000000e+00 0.000000e+00 0.000000e+00
 2.500000e-02 0.000000e+00 0.000000e+00
 5.000000e-02 0.000000e+00 0.000000e+00
 7.500000e-02 0.000000e+00 0.000000e+00
 1.000000e-01 0.000000e+00 0.000000e+00
 1.250000e-01 0.000000e+00 0.000000e+00
 1.500000e-01 0.000000e+00 0.000000e+00
 1.750000e-01 0.000000e+00 0.000000e+00
 2.000000e-01 0.000000e+00 0.000000e+00
 2.250000e-01 0.000000e+00 0.000000e+00
 2.500000e-01 0.000000e+00 0.000000e+00
 2.750000e-01 0.000000e+00 0.000000e+00
 3.000000e-01 0.000000e+00 0.000000e+00
 3.250000e-01 0.000000e+00 0.000000e+00
 3.500000e-01 0.000000e+00 0.000000e+00
 3.750000e-01 0.000000e+00 0.000000e+00
 4.000000e-01 0.000000e+00 0.000000e+00
 4.250000e-01 0.000000e+00 0.000000e+00
 4.500000e-01 0.000000e+00 0.000000e+00
 4.750000e-01 0.000000e+00 0.000000e+00
 5.000000e-01 0.000000e+00 0.000000e+00
 5.250000e-01 0.000000e+00 0.000000e+00
 5.500000e-01 0.000000e+00 0.000000e+00
 5.750000e-01 0.000000e+00 0.000000e+00
 6.000000e-01 0.000000e+00 0.000000e+00
 6.250000e-01 0.000000e+00 0.000000e+00
 6.500000e-01 0.000000e+00 0.000000e+00
 6.750000e-01 0.000000e+00 0.000000e+00
 7.000000e-01 0.000000e+00 0.000000e+00
 7.250000e-01 0.000000e+00 0.000000e+00
 7.500000e-01 0.000000e+00 0.000000e+00
 7.750000e-01 0.000000e+00 0.000000e+00
 8.000000e-01 0.000000e+00 0.000000e+00
 8.250000e-01 0.000000e+00 0.000000e+00
 8.500000e-01 0.000000e+00 0.000000e+00
 8.750000e-01 0.000000e+00 0.000000e+00
 9.000000e-01 0.000000e+00 0.000000e+00
 9.250000e-01 0.000000e+00 0.000000e+00
 9.500000e-01 0.000000e+00 0.000000e+00
 9.750000e-01 0.000000e+00 0.000000e+00
 1.000000e+00 0.000000e+00 0.000000e+00
 0.000000e+00 2.500000e-02 0.000000e+00
 5.000000e-02 2.500000e-02 0.000000e+00
 1.000000e-01 2.500000e-02 0.000000e+00
 1.500000e-01 2.500000e-02 0.000000e+00
 2.000000e-01 2.500000e-02 0.000000e+00
 2.500000e-01 2.500000e-02 0.000000e+00
 3.000000e-01 2.500000e-02 0.000000e+00
 3.500000e-01 2.500000e-02 0.000000e+00
 4.000000e-01 2.500000e-02 0.000000e+00
 4.500000e-01 2.500000e-02 0.000000e+00
 5.000000e-01 2.500000e-02 0.000000e+00
 5.500000e-01 2.500000e-02 0.000000e+00
 6.000000e-01 2.500000e-02 0.000000e+00
 6.500000e-01 2.500000e-02 0.000000e+00
 7.000000e-01 2.500000e-02 0.000000e+00
 7.500000e-01 2.500000e-02 0.000000e+00
 8.000000e-01 2.500000e-02 0.000000e+00
 8.500000e-01 2.500000e-02 0.000000e+00
 9.000000e-01 2.500000e-02 0.000000e+00
 9.500000e-01 2.500000e-02 0.000000e+00
 1.000000e+00 2.500000e-02 0.000000e+00
 0.000000e+00 5.000000e-02 0.000000e+00
 2.500000e-02 5.000000e-02 0.000000e+00
 5.000000e-02 5.000000e-02 0.000000e+00
 7.500000e-02 5.000000e-02 0.000000e+00
 1.000000e-01 5.000000e-02 0.000000e+00
 1.250000e-01 5.000000e-02 0.000000e+00
 1.500000e-01 5.000000e-02 0.000000e+00
 1.750000e-01 5.000000e-02 0.000000e+00
 2.000000e-01 5.000000e-02 0.000000e+00
 2.250000e-01 5.000000e-02 0.000000e+00
 2.500000e-01 5.000000e-02 0.000000e+00
 2.750000e-01 5.000000e-02 0.000000e+00
 3.000000e-01 5.000000e-02 0.000000e+00
 3.250000e-01 5.000000e-02 0.000000e+00
 3.500000e-01 5.000000e-02 0.000000e+00
 3.750000e-01 5.000000e-02 0.000000e+00
 4.000000e-01 5.000000e-02 0.000000e+00
 4.250000e-01 5.000000e-02 0.000000e+00
 4.500000e-01 5.000000e-02 0.000000e+00
 4.750000e-01 5.000000e-02 0.000000e+00
 5.000000e-01 5.000000e-02 0.000000e+00
 5.250000e-01 5.000000e-02 0.000000e+00
 5.500000e-01 5.000000e-02 0.000000e+00
 5.750000e-01 5.000000e-02 0.000000e+00
 6.000000e-01 5.000000e-02 0.000000e+00
 6.250000e-01 5.000000e-02 0.000000e+00
 6.500000e-01 5.000000e-02 0.000000e+00
 6.750000e-01 5.000000e-02 0.000000e+00
 7.000000e-01 5.000000e-02 0.000000e+00
 7.250000e-01 5.000000e-02 0.000000e+00
 7.500000e-01 5.000000e-02 0.000000e+00
 7.750000e-01 5.000000e-02 0.000000e+00
 8.000000e-01 5.000000e-02 0.000000e+00
 8.250000e-01 5.000000e-02 0.000000e+00
 8.500000e-01 5.000000e-02 0.000000e+00
 8.750000e-01 5.000000e-02 0.000000e+00
 9.000000e-01 5.000000e-02 0.000000e+00
 9.250000e-01 5.000000e-02 0.000000e+00
 9.500000e-01 5.000000e-02 0.000000e+00
 9.750000e-01 5.000000e-02 0.000000e+00
 1.000000e+00 5.000000e-02 0.000000e+00
 0.000000e+00 7.500000e-02 0.000000e+00
 5.000000e-02 7.500000e-02 0.000000e+00
 1.000000e-01 7.500000e-02 0.000000e+00
 1.500000e-01 7.500000e-02 0.000000e+00
 2.000000e-01 7.500000e-02 0.000000e+00
 2.500000e-01 7.500000e-02 0.000000e+00
 3.000000e-01 7.500000e-02 0.000000e+00
 3.500000e-01 7.500000e-02 0.000000e+00
 4.000000e-01 7.500000e-02 0.000000e+00
 4.500000e-01 7.500000e-02 0.000000e+00
 5.000000e-01 7.500000e-02 0.000000e+00
 5.500000e-01 7.500000e-02 0.000000e+00
 6.000000e-01 7.500000e-02 0.000000e+00
 6.500000e-01 7.500000e-02 0.000000e+00
 7.000000e-01 7.500000e-02 0.000000e+00
 7.500000e-01 7.500000e-02 0.000000e+00
 8.000000e-01 7.500000e-02 0.000000e+00
 8.500000e-01 7.500000e-02 0.000000e+00
 9.000000e-01 7.500000e-02 0.000000e+00
 9.500000e-01 7.500000e-02 0.000000e+00
 1.000000e+00 7.500000e-02 0.000000e+00
 0.000000e+00 1.000000e-01 0.000000e+00
 2.500000e-02 1.000000e-01 0.000000e+00
 5.000000e-02 1.000000e-01 0.000000e+00
 7.500000e-02 1.000000e-01 0.000000e+00
 1.000000e-01 1.000000e-01 0.000000e+00
 1.250000e-01 1.000000e-01 0.000000e+00
 1.500000e-01 1.000000e-01 0.000000e+00
 1.750000e-01 1.000000e-01 0.000000e+00
 2.000000e-01 1.000000e-01 0.000000e+00
 2.250000e-01 1.000000e-01 0.000000e+00
 2.500000e-01 1.000000e-01 0.000000e+00
 2.750000e-01 1.000000e-01 0.000000e+00
 3.000000e-01 1.000000e-01 0.000000e+00
 3.250000e-01 1.000000e-01 0.000000e+00
 3.500000e-01 1.000000e-01 0.000000e+00
 3.750000e-01 1.000000e-01 0.000000e+00
 4.000000e-01 1.000000e-01 0.000000e+00
 4.250000e-01 1.000000e-01 0.000000e+00
 4.500000e-01 1.000000e-01 0.000000e+00
 4.750000e-01 1.000000e-01 0.000000e+00
 5.000000e-01 1.000000e-01 0.000000e+00
 5.250000e-01 1.000000e-01 0.000000e+00
 5.500000e-01 1.000000e-01 0.000000e+00
 5.750000e-01 1.000000e-01 0.000000e+00
 6.000000e-01 1.000000e-01 0.000000e+00
 6.250000e-01 1.000000e-01 0.000000e+00
 6.500000e-01 1.000000e-01 0.000000e+00
 6.750000e-01 1.000000e-01 0.000000e+00
 7.000000e-01 1.000000e-01 0.000000e+00
 7.250000e-01 1.000000e-01 0.000000e+00
 7.500000e-01 1.000000e-01 0.000000e+00
 7.750000e-01 1.000000e-01 0.000000e+00
 8.000000e-01 1.000000e-01 0.000000e+00
 8.250000e-01 1.000000e-01 0.000000e+00
 8.500000e-01 1.000000e-01 0.000000e+00
 8.750000e-01 1.000000e-01 0.000000e+00
 9.000000e-01 1.000000e-01 0.000000e+00
 9.250000e-01 1.000000e-01 0.000000e+00
 9.500000e-01 1.000000e-01 0.000000e+00
 9.750000e-01 1.000000e-01 0.000000e+00
 1.000000e+00 1.000000e-01 0.000000e+00
 0.000000e+00 1.250000e-01 0.000000e+00
 5.000000e-02 1.250000e-01 0.000000e+00
 1.000000e-01 1.250000e-01 0.000000e+00
 1.500000e-01 1.250000e-01 0.000000e+00
 2.000000e-01 1.250000e-01 0.000000e+00
 2.500000e-01 1.250000e-01 0.000000e+00
 3.000000e-01 1.250000e-01 0.000000e+00
 3.500000e-01 1.250000e-01 0.000000e+00
 4.000000e-01 1.250000e-01 0.000000e+00
 4.500000e-01 1.250000e-01 0.000000e+00
 5.000000e-01 1.250000e-01 0.000000e+00
 5.500000e-01 1.250000e-01 0.000000e+00
 6.000000e-01 1.250000e-01 0.000000e+00
 6.500000e-01 1.250000e-01 0.000000e+00
 7.000000e-01 1.250000e-01 0.000000e+00
 7.500000e-01 1.250000e-01 0.000000e+00
 8.000000e-01 1.250000e-01 0.000000e+00
 8.500000e-01 1.250000e-01 0.000000e+00
 9.000000e-01 1.250000e-01 0.000000e+00
 9.500000e-01 1.250000e-01 0.000000e+00
 1.000000e+00 1.250000e-01 0.000000e+00
 0.000000e+00 1.500000e-01 0.000000e+00
 2.500000e-02 1.500000e-01 0.000000e+00
 5.000000e-02 1.500000e-01 0.000000e+00
 7.500000e-02 1.500000e-01 0.000000e+00
 1.000000e-01 1.500000e-01 0.000000e+00
 1.250000e-01 1.500000e-01 0.000000e+00
 1.500000e-01 1.500000e-01 0.000000e+00
 1.750000e-01 1.500000e-01 0.000000e+00
 2.000000e-01 1.500000e-01 0.000000e+00
 2.250000e-01 1.500000e-01 0.000000e+00
 2.500000e-01 1.500000e-01 0.000000e+00
 2.750000e-01 1.500000e-01 0.000000e+00
 3.000000e-01 1.500000e-01 0.000000e+00
 3.250000e-01 1.500000e-01 0.000000e+00
 3.500000e-01 1.500000e-01 0.000000e+00
 3.750000e-01 1.500000e-01 0.000000e+00
 4.000000e-01 1.500000e-01 0.000000e+00
 4.250000e-01 1.500000e-01 0.000000e+00
 4.500000e-01 1.500000e-01 0.000000e+00
 4.750000e-01 1.500000e-01 0.000000e+00
 5.000000e-01 1.500000e-01 0.000000e+00
 5.250000e-01 1.500000e-01 0.000000e+00
 5.500000e-01 1.500000e-01 0.000000e+00
 5.750000e-01 1.500000e-01 0.000000e+00
 6.000000e-01 1.500000e-01 0.000000e+00
 6.250000e-01 1.500000e-01 0.000000e+00
 6.500000e-01 1.500000e-01 0.000000e+00
 6.750000e-01 1.500000e-01 0.000000e+00
 7.000000e-01 1.500000e-01 0.000000e+00
 7.250000e-01 1.500000e-01 0.000000e+00
 7.500000e-01 1.500000e-01 0.000000e+00
 7.750000e-01 1.500000e-01 0.000000e+00
 8.000000e-01 1.500000e-01 0.000000e+00
 8.250000e-01 1.500000e-01 0.000000e+00
 8.500000e-01 1.500000e-01 0.000000e+00
 8.750000e-01 1.500000e-01 0.000000e+00
 9.000000e-01 1.500000e-01 0.000000e+00
 9.250000e-01 1.500000e-01 0.000000e+00
 9.500000e-01 1.500000e-01 0.000000e+00
 9.750000e-01 1.500000e-01 0.000000e+00
 1.000000e+00 1.500000e-01 0.000000e+00
 0.000000e+00 1.750000e-01 0.000000e+00
 5.000000e-02 1.750000e-01 0.000000e+00
 1.000000e-01 1.750000e-01 0.000000e+00
 1.500000e-01 1.750000e-01 0.000000e+00
 2.000000e-01 1.750000e-01 0.000000e+00
 2.500000e-01 1.750000e-01 0.000000e+00
 3.000000e-01 1.750000e-01 0.000000e+00
 3.500000e-01 1.750000e-01 0.000000e+00
 4.000000e-01 1.750000e-01 0.000000e+00
 4.500000e-01 1.750000e-01 0.000000e+00
 5.000000e-01 1.750000e-01 0.000000e+00
 5.500000e-01 1.750000e-01 0.000000e+00
 6.000000e-01 1.750000e-01 0.000000e+00
 6.500000e-01 1.750000e-01 0.000000e+00
 7.000000e-01 1.750000e-01 0.000000e+00
 7.500000e-01 1.750000e-01 0.000000e+00
 8.000000e-01 1.750000e-01 0.000000e+00
[...]
<PointData Scalars="data">
<DataArray Name="data" type="Float64" NumberOfComponents="1" format="ascii">
 1.000000e+00
 1.000000e+00
 1.000000e+00
 1.000000e+00
 1.000000e+00
 1.000000e+00
 1.000000e+00
 1.000000e+00
 1.000000e+00
 1.000000e+00
 1.000000e+00
 1.000000e+00
 1.000000e+00
 1.000000e+00
 1.000000e+00
 1.000000e+00
 1.000000e+00
 1.000000e+00
 1.000000e+00
 1.000000e+00
 1.000000e+00
 1.000000e+00
 1.000000e+00
 1.000000e+00
 1.000000e+00
 1.000000e+00
 1.000000e+00
 1.000000e+00
 1.000000e+00
 1.000000e+00
 1.000000e+00
 1.000000e+00
 1.000000e+00
 1.000000e+00
 1.000000e+00
 1.000000e+00
 1.000000e+00
 1.000000e+00
 1.000000e+00
 1.000000e+00
 1.000000e+00
 1.000000e-00
 9.989381e-01
 9.236478e-01
 8.391945e-01
 7.586085e-01
 6.891654e-01
 6.288143e-01
 5.775088e-01
 5.318052e-01
 4.913237e-01
 4.538366e-01
 4.195219e-01
 3.872825e-01
 3.577603e-01
 3.306385e-01
 3.067466e-01
 2.863043e-01
 2.698763e-01
 2.579573e-01
 2.505325e-01
 2.497087e-01
 9.690584e-01
 9.780153e-01
 9.421399e-01
 8.830776e-01
 8.166808e-01
 7.480276e-01
 6.816206e-01
 6.212386e-01
 5.671859e-01
 5.183063e-01
 4.762490e-01
 4.385176e-01
 4.062626e-01
 3.774694e-01
 3.526082e-01
 3.302709e-01
 3.108132e-01
 2.930279e-01
 2.774000e-01
 2.629189e-01
 2.501385e-01
 2.381302e-01
 2.275624e-01
 2.175612e-01
 2.088506e-01
 2.004594e-01
 1.933203e-01
 1.864522e-01
 1.808249e-01
 1.751249e-01
 1.707351e-01
 1.661007e-01
 1.628411e-01
 1.591543e-01
 1.569302e-01
 1.540352e-01
 1.529665e-01
 1.511361e-01
 1.508395e-01
 1.477102e-01
 1.524720e-01
 9.895338e-01
 9.274905e-01
 7.616497e-01
 5.925209e-01
 4.616522e-01
 3.714710e-01
 3.108982e-01
 2.663924e-01
 2.325724e-01
 2.045141e-01
 1.812053e-01
 1.605433e-01
 1.425500e-01
 1.262365e-01
 1.117089e-01
 9.876522e-02
 8.769635e-02
 7.856548e-02
 7.158756e-02
 6.809861e-02
 6.694921e-02
 9.863525e-01
 9.657864e-01
 9.001867e-01
 8.048337e-01
 6.999846e-01
 5.993486e-01
 5.121720e-01
 4.412385e-01
 3.863014e-01
 3.435479e-01
 3.100726e-01
 2.821744e-01
 2.592298e-01
 2.388305e-01
 2.213847e-01
 2.063146e-01
 1.929671e-01
 1.812000e-01
 1.705391e-01
 1.611354e-01
 1.524844e-01
 1.446483e-01
 1.373239e-01
 1.306431e-01
 1.243633e-01
 1.185716e-01
 1.130439e-01
 1.080809e-01
 1.033700e-01
 9.879307e-02
 9.440626e-02
 9.032142e-02
 8.647015e-02
 8.285830e-02
 7.961272e-02
 7.668016e-02
 7.405316e-02
 7.179342e-02
 7.083314e-02
 6.955515e-02
 6.876016e-02
 9.957903e-01
 8.929449e-01
 6.649801e-01
 4.696717e-01
 3.530890e-01
 2.821663e-01
 2.349296e-01
 2.041761e-01
 1.804185e-01
 1.618906e-01
 1.453178e-01
 1.309000e-01
 1.170827e-01
 1.040831e-01
 9.083816e-02
 7.817365e-02
 6.556761e-02
 5.395654e-02
 4.438889e-02
 3.804822e-02
 3.506784e-02
 9.913083e-01
 9.593921e-01
 8.753605e-01
 7.538282e-01
 6.269941e-01
 5.181415e-01
 4.348379e-01
 3.726411e-01
 3.251996e-01
 2.896120e-01
 2.619466e-01
 2.412985e-01
 2.248850e-01
 2.112484e-01
 1.995873e-01
 1.888717e-01
 1.793083e-01
 1.711954e-01
 1.636684e-01
 1.567378e-01
 1.500789e-01
 1.441425e-01
 1.383242e-01
 1.325810e-01
 1.267393e-01
 1.213482e-01
 1.158233e-01
 1.101770e-01
 1.042267e-01
 9.807812e-02
 9.167296e-02
 8.522275e-02
 7.862729e-02
 7.196861e-02
 6.539064e-02
 5.923559e-02
 5.372887e-02
 4.908475e-02
 4.543068e-02
 4.362581e-02
 4.189257e-02
 9.975147e-01
 8.727276e-01
 6.106259e-01
 4.221855e-01
 3.174573e-01
 2.605995e-01
 2.276907e-01
 2.043391e-01
 1.895287e-01
 1.761799e-01
 1.652762e-01
 1.535992e-01
 1.423225e-01
 1.288179e-01
 1.142361e-01
 9.703901e-02
 7.798779e-02
 5.833372e-02
 4.045229e-02
 2.770185e-02
 2.256698e-02
 9.926825e-01
 9.571124e-01
 8.618805e-01
 7.249291e-01
 5.930237e-01
 4.875283e-01
 4.075699e-01
 3.506023e-01
 3.100015e-01
 2.813422e-01
 2.603286e-01
 2.445612e-01
 2.321288e-01
 2.231610e-01
 2.160280e-01
 2.096988e-01
 2.040013e-01
 1.988945e-01
 1.939956e-01
 1.897303e-01
 1.853782e-01
 1.810969e-01
 1.764334e-01
 1.718245e-01
 1.667199e-01
 1.614405e-01
 1.553118e-01
 1.483931e-01
 1.405148e-01
 1.320120e-01
 1.224029e-01
 1.118389e-01
 1.003221e-01
 8.828199e-02
 7.599484e-02
 6.410928e-02
 5.292782e-02
 4.341916e-02
 3.582741e-02
 3.174796e-02
 2.918448e-02
 9.979188e-01
 8.627673e-01
 5.916939e-01
 4.088281e-01
 3.160416e-01
 2.698677e-01
 2.452026e-01
 2.324684e-01
 2.231333e-01
 2.177957e-01
 2.109225e-01
 2.044246e-01
 1.945746e-01
 1.823345e-01
 1.650546e-01
 1.422109e-01
 1.135374e-01
 8.074342e-02
 4.901897e-02
 2.524798e-02
 1.628098e-02
 9.931341e-01
 9.568466e-01
 8.569066e-01
 7.177622e-01
 5.869740e-01
 4.831288e-01
 4.067983e-01
 3.547876e-01
 3.188192e-01
 2.943514e-01
 2.771824e-01
 2.659692e-01
 2.585346e-01
 2.533577e-01
 2.495343e-01
 2.473315e-01
 2.457803e-01
 2.439985e-01
 2.422012e-01
 2.409529e-01
 2.393513e-01
 2.373326e-01
 2.347461e-01
 2.320885e-01
 2.284204e-01
 2.235964e-01
 2.174710e-01
 2.102738e-01
 2.012250e-01
 1.902458e-01
 1.770618e-01
 1.617717e-01
 1.443961e-01
 1.252446e-01
 1.048441e-01
 8.422235e-02
 6.465686e-02
 4.761221e-02
 3.387956e-02
 2.564522e-02
 2.233900e-02
 9.977755e-01
 8.619421e-01
 5.949072e-01
 4.172559e-01
 3.316386e-01
 2.924630e-01
 2.763769e-01
 2.699965e-01
 2.693175e-01
 2.692665e-01
 2.698212e-01
 2.674975e-01
 2.625658e-01
 2.522295e-01
 2.346673e-01
 2.072495e-01
 1.681987e-01
 1.192326e-01
 6.776181e-02
 2.778756e-02
 1.262128e-02
 9.933789e-01
 9.579755e-01
 8.604288e-01
 7.262008e-01
 5.985226e-01
 4.969575e-01
 4.234452e-01
 3.739434e-01
 3.401563e-01
 3.183523e-01
 3.047433e-01
 2.966628e-01
 2.919460e-01
 2.902401e-01
 2.903757e-01
 2.913451e-01
 2.927652e-01
 2.947021e-01
 2.966507e-01
 2.981751e-01
 2.993029e-01
 3.005247e-01
 3.009461e-01
 3.003827e-01
 2.986773e-01
 2.959514e-01
 2.914000e-01
 2.848527e-01
 2.757273e-01
 2.637707e-01
 2.483388e-01
 2.291625e-01
 2.060239e-01
 1.792311e-01
 1.495046e-01
 1.180075e-01
 8.703185e-02
 5.933861e-02
 3.707339e-02
 2.294238e-02
 1.793915e-02
 9.976184e-01
 8.688023e-01
 6.132763e-01
 4.402655e-01
 3.574365e-01
 3.230937e-01
 3.116364e-01
 3.119337e-01
 3.165348e-01
 3.234494e-01
 3.293913e-01
 3.335120e-01
 3.336267e-01
 3.277617e-01
 3.125873e-01
 2.838796e-01
 2.371372e-01
 1.715762e-01
 9.611709e-02
 3.420823e-02
 1.019112e-02
 9.934035e-01
 9.603172e-01
 8.703145e-01
 7.453835e-01
 6.231255e-01
 5.245746e-01
 4.523747e-01
 4.032242e-01
 3.703913e-01
 3.501144e-01
 3.376928e-01
 3.312237e-01
 3.290140e-01
 3.295859e-01
 3.317496e-01
 3.354001e-01
 3.398640e-01
 3.444229e-01
 3.489881e-01
 3.535738e-01
 3.577904e-01
 3.615848e-01
 3.646552e-01
 3.670541e-01
 3.681858e-01
 3.679264e-01
 3.657097e-01
 3.612276e-01
 3.536525e-01
 3.424155e-01
 3.266664e-01
 3.058122e-01
 2.788420e-01
 2.455692e-01
 2.067512e-01
 1.635981e-01
 1.190569e-01
 7.789221e-02
 4.432604e-02
 2.241792e-02
 1.493226e-02
 9.973175e-01
 8.808552e-01
 6.432540e-01
 4.742554e-01
 3.916050e-01
 3.582049e-01
 3.496958e-01
 3.530620e-01
 3.624350e-01
 3.735861e-01
 3.850183e-01
 3.942974e-01
 4.000163e-01
 3.995258e-01
 3.890498e-01
 3.626638e-01
 3.130520e-01
 2.339636e-01
 1.331791e-01
 4.402037e-02
 8.423440e-03
 9.930127e-01
 9.635932e-01
 8.841304e-01
 7.719939e-01
 6.578186e-01
 5.630347e-01
 4.913775e-01
 4.417634e-01
 4.084737e-01
 3.876362e-01
 3.752495e-01
 3.693874e-01
 3.677885e-01
 3.691904e-01
 3.729006e-01
 3.780078e-01
 3.839022e-01
 3.904123e-01
 3.972162e-01
 4.037661e-01
 4.101066e-01
 4.163163e-01
 4.219112e-01
 4.267366e-01
 4.304623e-01
 4.328729e-01
 4.333707e-01
 4.314714e-01
 4.264244e-01
 4.174936e-01
 4.032680e-01
 3.827465e-01
 3.547756e-01
 3.178134e-01
 2.716766e-01
 2.179383e-01
 1.592956e-01
 1.023483e-01
 5.506633e-02
 2.355449e-02
 1.271273e-02
 9.966314e-01
 8.959349e-01
 6.820520e-01
 5.180859e-01
 4.335343e-01
 3.983926e-01
 3.896015e-01
 3.942382e-01
 4.053681e-01
 4.195157e-01
 4.342256e-01
 4.476827e-01
 4.580283e-01
 4.627337e-01
 4.576545e-01
 4.362269e-01
 3.879676e-01
 3.011286e-01
 1.770981e-01
 5.671024e-02
 6.973443e-03
 9.920060e-01
 9.672772e-01
 8.999204e-01
 8.031319e-01
 6.999278e-01
 6.104967e-01
 5.398802e-01
 4.892445e-01
 4.544734e-01
 4.319393e-01
 4.183463e-01
 4.114987e-01
 4.092936e-01
 4.105096e-01
 4.143599e-01
 4.195957e-01
 4.262464e-01
 4.334909e-01
 4.412274e-01
 4.490004e-01
 4.568264e-01
 4.644436e-01
 4.716806e-01
 4.783854e-01
 4.841802e-01
 4.887857e-01
 4.916853e-01
 4.924382e-01
 4.900850e-01
 4.836810e-01
 4.722634e-01
 4.537531e-01
 4.265695e-01
 3.891236e-01
 3.387495e-01
 2.765991e-01
 2.051984e-01
 1.316177e-01
 6.852209e-02
 2.587031e-02
 1.088786e-02
 9.955069e-01
 9.122620e-01
 7.270009e-01
 5.712060e-01
 4.839743e-01
 4.449654e-01
 4.333646e-01
 4.366188e-01
 4.476197e-01
 4.623944e-01
 4.786773e-01
 4.944885e-01
 5.079877e-01
 5.166989e-01
 5.165490e-01
 5.004197e-01
 4.563878e-01
 3.675935e-01
 2.248881e-01
 7.159067e-02
 5.695343e-03
 9.906206e-01
 9.709219e-01
 9.161101e-01
 8.361470e-01
 7.466681e-01
 6.648901e-01
 5.971504e-01
 5.458152e-01
 5.094534e-01
 4.842725e-01
 4.687680e-01
 4.596449e-01
 4.558142e-01
 4.557734e-01
 4.583255e-01
 4.630048e-01
 4.690587e-01
 4.760891e-01
 4.837944e-01
 4.917998e-01
 4.999993e-01
 5.081989e-01
 5.162043e-01
 5.239097e-01
 5.309401e-01
 5.369941e-01
 5.416735e-01
 5.442257e-01
 5.441850e-01
 5.403545e-01
 5.312315e-01
 5.157272e-01
 4.905465e-01
 4.541848e-01
 4.028498e-01
 3.351100e-01
 2.533320e-01
 1.638529e-01
 8.388963e-02
 2.907797e-02
 9.379422e-03
 9.943047e-01
 9.284091e-01
 7.751119e-01
 6.324066e-01
 5.436121e-01
 4.995799e-01
 4.834503e-01
 4.833001e-01
 4.920111e-01
 5.055103e-01
 5.213214e-01
 5.376043e-01
 5.523791e-01
 5.633802e-01
 5.666346e-01
 5.550342e-01
 5.160257e-01
 4.287942e-01
 2.729993e-01
 8.773785e-02
 4.493153e-03
 9.891121e-01
 9.741295e-01
 9.314776e-01
 8.683820e-01
 7.948014e-01
 7.234008e-01
 6.612504e-01
 6.108762e-01
 5.734303e-01
 5.462466e-01
 5.277361e-01
 5.163184e-01
 5.099143e-01
 5.075609e-01
 5.083137e-01
 5.112133e-01
 5.158187e-01
 5.216134e-01
 5.283182e-01
 5.355551e-01
 5.431722e-01
 5.509983e-01
 5.587713e-01
 5.665078e-01
 5.737524e-01
 5.804031e-01
 5.856390e-01
 5.894894e-01
 5.907056e-01
 5.885006e-01
 5.816532e-01
 5.680605e-01
 5.455265e-01
 5.107556e-01
 4.601202e-01
 3.895037e-01
 3.000726e-01
 1.968682e-01
 1.000794e-01
 3.272269e-02
 7.994014e-03
 9.930266e-01
 9.432895e-01
 8.229016e-01
 6.988712e-01
 6.120322e-01
 5.637727e-01
 5.423448e-01
 5.372654e-01
 5.419706e-01
 5.523161e-01
 5.657731e-01
 5.804830e-01
 5.946307e-01
 6.057607e-01
 6.103977e-01
 6.016069e-01
 5.664657e-01
 4.819146e-01
 3.179485e-01
 1.040651e-01
 3.368580e-03
 9.872873e-01
 9.764454e-01
 9.449333e-01
 8.976513e-01
 8.407040e-01
 7.820613e-01
 7.283230e-01
 6.821862e-01
 6.452240e-01
 6.172531e-01
 5.967315e-01
 5.825058e-01
 5.735748e-01
 5.685277e-01
 5.666284e-01
 5.671261e-01
 5.695366e-01
 5.732623e-01
 5.780876e-01
 5.836825e-01
 5.898922e-01
 5.962327e-01
 6.027825e-01
 6.095864e-01
 6.160966e-01
 6.219910e-01
 6.270983e-01
 6.308086e-01
 6.322106e-01
 6.306119e-01
 6.247501e-01
 6.123636e-01
 5.915263e-01
 5.582369e-01
 5.086229e-01
 4.369659e-01
 3.421820e-01
 2.280065e-01
 1.158696e-01
 3.640662e-02
 6.987285e-03
 9.915766e-01
 9.559793e-01
 8.668205e-01
 7.660360e-01
 6.869475e-01
 6.373356e-01
 6.109494e-01
 6.004733e-01
 5.999826e-01
 6.057014e-01
 6.149805e-01
 6.264127e-01
 6.375638e-01
 6.469370e-01
 6.503034e-01
 6.417946e-01
 6.083950e-01
 5.257452e-01
 3.567468e-01
 1.191449e-01
 2.682458e-03
 9.850677e-01
 9.775820e-01
 9.556736e-01
 9.221073e-01
 8.809425e-01
 8.364013e-01
 7.932482e-01
 7.544302e-01
 7.211574e-01
 6.941872e-01
 6.733328e-01
 6.575837e-01
 6.463467e-01
 6.387716e-01
 6.342894e-01
 6.320727e-01
 6.318132e-01
 6.329449e-01
 6.353437e-01
 6.384141e-01
 6.422085e-01
 6.464250e-01
 6.510107e-01
 6.555759e-01
 6.601348e-01
 6.645988e-01
 6.682494e-01
 6.704131e-01
 6.709852e-01
 6.687757e-01
 6.623068e-01
 6.498854e-01
 6.296087e-01
 5.967761e-01
 5.476259e-01
 4.754262e-01
 3.768754e-01
 2.546170e-01
 1.296856e-01
 3.968269e-02
 6.596431e-03
 9.898089e-01
 9.657915e-01
 9.038824e-01
 8.284232e-01
 7.628621e-01
 7.161196e-01
 6.874119e-01
 6.722373e-01
 6.663723e-01
 6.664869e-01
 6.706076e-01
 6.765495e-01
 6.834640e-01
 6.880653e-01
 6.883629e-01
 6.769060e-01
 6.425636e-01
 5.597352e-01
 3.867247e-01
 1.311980e-01
 2.381568e-03
 9.820608e-01
 9.770576e-01
 9.629263e-01
 9.406609e-01
 9.129676e-01
 8.819918e-01
 8.504947e-01
 8.207681e-01
 7.939753e-01
 7.708367e-01
 7.516603e-01
 7.362284e-01
 7.242717e-01
 7.151463e-01
 7.085990e-01
 7.040476e-01
 7.013216e-01
 6.996163e-01
 6.990528e-01
 6.994742e-01
 7.006960e-01
 7.018238e-01
 7.033481e-01
 7.052968e-01
 7.072338e-01
 7.086539e-01
 7.096233e-01
 7.097590e-01
 7.080533e-01
 7.033367e-01
 6.952563e-01
 6.816475e-01
 6.598439e-01
 6.260571e-01
 5.765556e-01
 5.030435e-01
 4.014784e-01
 2.737999e-01
 1.395715e-01
 4.202439e-02
 6.621002e-03
 9.873788e-01
 9.722123e-01
 9.322377e-01
 8.807667e-01
 8.318005e-01
 7.927496e-01
 7.653317e-01
 7.477695e-01
 7.374331e-01
 7.325014e-01
 7.301777e-01
 7.307325e-01
 7.306815e-01
 7.300027e-01
 7.236225e-01
 7.075368e-01
 6.683617e-01
 5.827449e-01
 4.050939e-01
 1.380582e-01
 2.224442e-03
 9.776610e-01
 9.743548e-01
 9.661203e-01
 9.523874e-01
 9.353426e-01
 9.157770e-01
 8.951552e-01
 8.747546e-01
 8.556031e-01
 8.382274e-01
 8.229373e-01
 8.097532e-01
 7.987740e-01
 7.897252e-01
 7.825279e-01
 7.764026e-01
 7.715785e-01
 7.679105e-01
 7.652529e-01
 7.626663e-01
 7.606477e-01
 7.590461e-01
 7.577978e-01
 7.560006e-01
 7.542188e-01
 7.526676e-01
 7.504650e-01
 7.466416e-01
 7.414649e-01
 7.340305e-01
 7.228175e-01
 7.056487e-01
 6.811811e-01
 6.452130e-01
 5.932026e-01
 5.168723e-01
 4.130272e-01
 2.822387e-01
 1.430938e-01
 4.315332e-02
 6.865808e-03
 9.837192e-01
 9.747520e-01
 9.509807e-01
 9.192560e-01
 8.864619e-01
 8.577882e-01
 8.349445e-01
 8.176646e-01
 8.054244e-01
 7.955744e-01
 7.890765e-01
 7.822035e-01
 7.768659e-01
 7.675310e-01
 7.547970e-01
 7.301324e-01
 6.839589e-01
 5.911730e-01
 4.083074e-01
 1.372332e-01
 2.081171e-03
 9.708156e-01
 9.682521e-01
 9.641725e-01
 9.565807e-01
 9.470719e-01
 9.358903e-01
 9.240046e-01
 9.117174e-01
 8.996772e-01
 8.881604e-01
 8.775962e-01
 8.679872e-01
 8.594843e-01
 8.516060e-01
 8.446873e-01
 8.385587e-01
 8.332792e-01
 8.281747e-01
 8.235658e-01
 8.189023e-01
 8.146211e-01
 8.102689e-01
 8.060037e-01
 8.011049e-01
 7.959981e-01
 7.903007e-01
 7.839716e-01
 7.768387e-01
 7.678710e-01
 7.554388e-01
 7.396716e-01
 7.186582e-01
 6.899991e-01
 6.493986e-01
 5.924313e-01
 5.124730e-01
 4.069777e-01
 2.750720e-01
 1.381199e-01
 4.288754e-02
 7.317420e-03
 9.774333e-01
 9.722983e-01
 9.595477e-01
 9.416660e-01
 9.220118e-01
 9.029604e-01
 8.857633e-01
 8.711814e-01
 8.576768e-01
 8.464001e-01
 8.347232e-01
 8.238196e-01
 8.104709e-01
 7.956607e-01
 7.723094e-01
 7.394009e-01
 6.825435e-01
 5.778158e-01
 3.893757e-01
 1.272729e-01
 2.485231e-03
 9.581076e-01
 9.563743e-01
 9.545694e-01
 9.509153e-01
 9.462711e-01
 9.407643e-01
 9.346091e-01
 9.280311e-01
 9.213724e-01
 9.147769e-01
 9.083266e-01
 9.019214e-01
 8.957728e-01
 8.898226e-01
 8.841763e-01
 8.786514e-01
 8.732603e-01
 8.674186e-01
 8.616754e-01
 8.558572e-01
 8.499208e-01
 8.432619e-01
 8.363314e-01
 8.288045e-01
 8.206916e-01
 8.111283e-01
 8.004128e-01
 7.887517e-01
 7.751153e-01
 7.587019e-01
 7.380540e-01
 7.103888e-01
 6.748014e-01
 6.273602e-01
 5.651635e-01
 4.818601e-01
 3.730074e-01
 2.461729e-01
 1.246399e-01
 4.060785e-02
 8.691561e-03
 9.649326e-01
 9.619522e-01
 9.556114e-01
 9.460436e-01
 9.344324e-01
 9.218263e-01
 9.091618e-01
 8.959168e-01
 8.829172e-01
 8.690999e-01
 8.546822e-01
 8.381095e-01
 8.195818e-01
 7.958243e-01
 7.650710e-01
 7.178346e-01
 6.469123e-01
 5.303300e-01
 3.350215e-01
 1.070556e-01
 4.209645e-03
 9.312401e-01
 9.304451e-01
 9.291672e-01
 9.282068e-01
 9.259471e-01
 9.233201e-01
 9.203875e-01
 9.171419e-01
 9.135300e-01
 9.096787e-01
 9.055939e-01
 9.012071e-01
 8.966301e-01
 8.919192e-01
 8.869563e-01
 8.814286e-01
 8.756370e-01
 8.693572e-01
 8.626765e-01
 8.553521e-01
 8.475160e-01
 8.388651e-01
 8.294614e-01
 8.188006e-01
 8.070335e-01
 7.936861e-01
 7.786160e-01
 7.611704e-01
 7.407711e-01
 7.178267e-01
 6.899286e-01
 6.564534e-01
 6.137001e-01
 5.587632e-01
 4.878298e-01
 4.006532e-01
 3.000169e-01
 1.951671e-01
 9.981372e-02
 3.421356e-02
 1.364719e-02
 9.330516e-01
 9.319022e-01
 9.284132e-01
 9.214353e-01
 9.123044e-01
 9.012355e-01
 8.882918e-01
 8.737643e-01
 8.574507e-01
 8.394575e-01
 8.187955e-01
 7.954868e-01
 7.674286e-01
 7.336088e-01
 6.891031e-01
 6.285306e-01
 5.383496e-01
 4.074810e-01
 2.383516e-01
 7.250986e-02
 1.046597e-02
 8.475287e-01
 8.522906e-01
 8.491612e-01
 8.488646e-01
 8.470343e-01
 8.459656e-01
 8.430705e-01
 8.408465e-01
 8.371597e-01
 8.339002e-01
 8.292658e-01
 8.248761e-01
 8.191761e-01
 8.135488e-01
 8.066808e-01
 7.995418e-01
 7.911506e-01
 7.824401e-01
 7.724389e-01
 7.618711e-01
 7.498629e-01
 7.370825e-01
 7.226015e-01
 7.069736e-01
 6.891884e-01
 6.697308e-01
 6.473935e-01
 6.225324e-01
 5.937392e-01
 5.614843e-01
 5.237529e-01
 4.816956e-01
 4.328159e-01
 3.787632e-01
 3.183809e-01
 2.519736e-01
 1.833200e-01
 1.169230e-01
 5.786019e-02
 2.198429e-02
 3.094131e-02
 7.502935e-01
 7.494697e-01
 7.420450e-01
 7.301259e-01
 7.136980e-01
 6.932557e-01
 6.693637e-01
 6.422419e-01
 6.127196e-01
 5.804801e-01
 5.461654e-01
 5.086783e-01
 4.681966e-01
 4.224930e-01
 3.711874e-01
 3.108361e-01
 2.413929e-01
 1.608066e-01
 7.635307e-02
 1.062272e-03
 0.000000e+00
 0.000000e+00
 0.000000e+00
 0.000000e+00
 0.000000e+00
 0.000000e+00
 0.000000e+00
 0.000000e+00
 0.000000e+00
 0.000000e+00
 0.000000e+00
 0.000000e+00
 0.000000e+00
 0.000000e+00
 0.000000e+00
 0.000000e+00
 0.000000e+00
 0.000000e+00
 0.000000e+00
 0.000000e+00
 0.000000e+00
 0.000000e+00
 0.000000e+00
 0.000000e+00
 0.000000e+00
 0.000000e+00
 0.000000e+00
 0.000000e+00
 0.000000e+00
 0.000000e+00
 0.000000e+00
 0.000000e+00
 0.000000e+00
 0.000000e+00
 0.000000e+00
 0.000000e+00
 0.000000e+00
 0.000000e+00
 0.000000e+00
 0.000000e+00
 0.000000e+00
 0.000000e+00
</DataArray>
</PointData>
</Piece>
</UnstructuredGrid>
</VTKFile>
