<?xml version="1.0"?>
<VTKFile type="UnstructuredGrid" version="0.1">
<UnstructuredGrid>
<FieldData>
<DataArray Name="TIME" type="Float64" format="ascii" NumberOfTuples="1">
0.000000e+00
</DataArray>
</FieldData>
<FieldData>
<DataArray Name="CYCLE" type="Int32" format="ascii" NumberOfTuples="1">
0
</DataArray>
</FieldData>
<Piece NumberOfPoints="48" NumberOfCells="33">
<Points>
<DataArray NumberOfComponents="3" type="Float64" format="ascii">
-2.500000e+00 1.200000e+00 0.000000e+00
-1.545455e+00 1.200000e+00 0.000000e+00
-5.909091e-01 1.200000e+00 0.000000e+00
3.636364e-01 1.200000e+00 0.000000e+00
1.318182e+00 1.200000e+00 0.000000e+00
2.272727e+00 1.200000e+00 0.000000e+00
3.227273e+00 1.200000e+00 0.000000e+00
4.181818e+00 1.200000e+00 0.000000e+00
5.136364e+00 1.200000e+00 0.000000e+00
6.090909e+00 1.200000e+00 0.000000e+00
7.045455e+00 1.200000e+00 0.000000e+00
8.000000e+00 1.200000e+00 0.000000e+00
-2.500000e+00 2.066667e+00 0.000000e+00
-1.545455e+00 2.066667e+00 0.000000e+00
-5.909091e-01 2.066667e+00 0.000000e+00
3.636364e-01 2.066667e+00 0.000000e+00
1.318182e+00 2.066667e+00 0.000000e+00
2.272727e+00 2.066667e+00 0.000000e+00
3.227273e+00 2.066667e+00 0.000000e+00
4.181818e+00 2.066667e+00 0.000000e+00
5.136364e+00 2.066667e+00 0.000000e+00
6.090909e+00 2.066667e+00 0.000000e+00
7.045455e+00 2.066667e+00 0.000000e+00
8.000000e+00 2.066667e+00 0.000000e+00
-2.500000e+00 2.933333e+00 0.000000e+00
-1.545455e+00 2.933333e+00 0.000000e+00
-5.909091e-01 2.933333e+00 0.000000e+00
3.636364e-01 2.933333e+00 0.000000e+00
1.318182e+00 2.933333e+00 0.000000e+00
2.272727e+00 2.933333e+00 0.000000e+00
3.227273e+00 2.933333e+00 0.000000e+00
4.181818e+00 2.933333e+00 0.000000e+00
5.136364e+00 2.933333e+00 0.000000e+00
6.090909e+00 2.933333e+00 0.000000e+00
7.045455e+00 2.933333e+00 0.000000e+00
8.000000e+00 2.933333e+00 0.000000e+00
-2.500000e+00 3.800000e+00 0.000000e+00
-1.545455e+00 3.800000e+00 0.000000e+00
-5.909091e-01 3.800000e+00 0.000000e+00
3.636364e-01 3.800000e+00 0.000000e+00
1.318182e+00 3.800000e+00 0.000000e+00
2.272727e+00 3.800000e+00 0.000000e+00
3.227273e+00 3.800000e+00 0.000000e+00
4.181818e+00 3.800000e+00 0.000000e+00
5.136364e+00 3.800000e+00 0.000000e+00
6.090909e+00 3.800000e+00 0.000000e+00
7.045455e+00 3.800000e+00 0.000000e+00
8.000000e+00 3.800000e+00 0.000000e+00
</DataArray>
</Points>
<Cells>
<DataArray Name="connectivity" type="Int32" format="ascii">
0 1 13 12
1 2 14 13
2 3 15 14
3 4 16 15
4 5 17 16
5 6 18 17
6 7 19 18
7 8 20 19
8 9 21 20
9 10 22 21
10 11 23 22
12 13 25 24
13 14 26 25
14 15 27 26
15 16 28 27
16 17 29 28
17 18 30 29
18 19 31 30
19 20 32 31
20 21 33 32
21 22 34 33
22 23 35 34
24 25 37 36
25 26 38 37
26 27 39 38
27 28 40 39
28 29 41 40
29 30 42 41
30 31 43 42
31 32 44 43
32 33 45 44
33 34 46 45
34 35 47 46
</DataArray>
<DataArray Name="offsets" type="Int32" format="ascii">
4
8
12
16
20
24
28
32
36
40
44
48
52
56
60
64
68
72
76
80
84
88
92
96
100
104
108
112
116
120
124
128
132
</DataArray>
<DataArray Name="types" type="UInt8" format="ascii">
9
9
9
9
9
9
9
9
9
9
9
9
9
9
9
9
9
9
9
9
9
9
9
9
9
9
9
9
9
9
9
9
9
</DataArray>
</Cells>
<PointData>
<DataArray Name="mesh_vars/Nodes_Id" type="Float64" NumberOfComponents="1" format="ascii">
0.000000e+00
1.000000e+00
2.000000e+00
3.000000e+00
4.000000e+00
5.000000e+00
6.000000e+00
7.000000e+00
8.000000e+00
9.000000e+00
1.000000e+01
1.100000e+01
1.200000e+01
1.300000e+01
1.400000e+01
1.500000e+01
1.600000e+01
1.700000e+01
1.800000e+01
1.900000e+01
2.000000e+01
2.100000e+01
2.200000e+01
2.300000e+01
2.400000e+01
2.500000e+01
2.600000e+01
2.700000e+01
2.800000e+01
2.900000e+01
3.000000e+01
3.100000e+01
3.200000e+01
3.300000e+01
3.400000e+01
3.500000e+01
3.600000e+01
3.700000e+01
3.800000e+01
3.900000e+01
4.000000e+01
4.100000e+01
4.200000e+01
4.300000e+01
4.400000e+01
4.500000e+01
4.600000e+01
4.700000e+01
</DataArray>
<DataArray Name="mesh_vars/Nodes_Tag" type="Float64" NumberOfComponents="1" format="ascii">
0.000000e+00
1.000000e+00
2.000000e+00
3.000000e+00
4.000000e+00
5.000000e+00
6.000000e+00
7.000000e+00
8.000000e+00
9.000000e+00
1.000000e+01
1.100000e+01
1.200000e+01
1.300000e+01
1.400000e+01
1.500000e+01
1.600000e+01
1.700000e+01
1.800000e+01
1.900000e+01
2.000000e+01
2.100000e+01
2.200000e+01
2.300000e+01
2.400000e+01
2.500000e+01
2.600000e+01
2.700000e+01
2.800000e+01
2.900000e+01
3.000000e+01
3.100000e+01
3.200000e+01
3.300000e+01
3.400000e+01
3.500000e+01
3.600000e+01
3.700000e+01
3.800000e+01
3.900000e+01
4.000000e+01
4.100000e+01
4.200000e+01
4.300000e+01
4.400000e+01
4.500000e+01
4.600000e+01
4.700000e+01
</DataArray>
</PointData>
<CellData>
<DataArray Name="data" type="Float64" NumberOfComponents="1" format="ascii">
-2.022727e+00
-1.068182e+00
-1.136364e-01
8.409091e-01
1.795455e+00
2.750000e+00
3.704545e+00
4.659091e+00
5.613636e+00
6.568182e+00
7.522727e+00
-2.022727e+00
-1.068182e+00
-1.136364e-01
8.409091e-01
1.795455e+00
2.750000e+00
3.704545e+00
4.659091e+00
5.613636e+00
6.568182e+00
7.522727e+00
-2.022727e+00
-1.068182e+00
-1.136364e-01
8.409091e-01
1.795455e+00
2.750000e+00
3.704545e+00
4.659091e+00
5.613636e+00
6.568182e+00
7.522727e+00
</DataArray>
<DataArray Name="mesh_vars/Elements_Id" type="Float64" NumberOfComponents="1" format="ascii">
0.000000e+00
1.000000e+00
2.000000e+00
3.000000e+00
4.000000e+00
5.000000e+00
6.000000e+00
7.000000e+00
8.000000e+00
9.000000e+00
1.000000e+01
1.100000e+01
1.200000e+01
1.300000e+01
1.400000e+01
1.500000e+01
1.600000e+01
1.700000e+01
1.800000e+01
1.900000e+01
2.000000e+01
2.100000e+01
2.200000e+01
2.300000e+01
2.400000e+01
2.500000e+01
2.600000e+01
2.700000e+01
2.800000e+01
2.900000e+01
3.000000e+01
3.100000e+01
3.200000e+01
</DataArray>
<DataArray Name="mesh_vars/Elements_Owner" type="Float64" NumberOfComponents="1" format="ascii">
0.000000e+00
0.000000e+00
0.000000e+00
0.000000e+00
0.000000e+00
0.000000e+00
0.000000e+00
0.000000e+00
0.000000e+00
0.000000e+00
0.000000e+00
0.000000e+00
0.000000e+00
0.000000e+00
0.000000e+00
0.000000e+00
0.000000e+00
0.000000e+00
0.000000e+00
0.000000e+00
0.000000e+00
0.000000e+00
0.000000e+00
0.000000e+00
0.000000e+00
0.000000e+00
0.000000e+00
0.000000e+00
0.000000e+00
0.000000e+00
0.000000e+00
0.000000e+00
0.000000e+00
</DataArray>
<DataArray Name="mesh_vars/Elements_Tag" type="Float64" NumberOfComponents="1" format="ascii">
0.000000e+00
1.000000e+00
2.000000e+00
3.000000e+00
4.000000e+00
5.000000e+00
6.000000e+00
7.000000e+00
8.000000e+00
9.000000e+00
1.000000e+01
1.100000e+01
1.200000e+01
1.300000e+01
1.400000e+01
1.500000e+01
1.600000e+01
1.700000e+01
1.800000e+01
1.900000e+01
2.000000e+01
2.100000e+01
2.200000e+01
2.300000e+01
2.400000e+01
2.500000e+01
2.600000e+01
2.700000e+01
2.800000e+01
2.900000e+01
3.000000e+01
3.100000e+01
3.200000e+01
</DataArray>
</CellData>
</Piece>
</UnstructuredGrid>
</VTKFile>
