<?xml version="1.0"?>
<VTKFile type="UnstructuredGrid" version="0.1">
<UnstructuredGrid>
<FieldData>
<DataArray Name="TIME" type="Float64" format="ascii" NumberOfTuples="1">
0.000000e+00
</DataArray>
</FieldData>
<FieldData>
<DataArray Name="CYCLE" type="Int32" format="ascii" NumberOfTuples="1">
0
</DataArray>
</FieldData>
<Piece NumberOfPoints="48" NumberOfCells="28">
<Points>
<DataArray NumberOfComponents="3" type="Float64" format="ascii">
-2.500000e+00 1.200000e+00 0.000000e+00
-1.545455e+00 1.200000e+00 0.000000e+00
-5.909091e-01 1.200000e+00 0.000000e+00
3.636364e-01 1.200000e+00 0.000000e+00
1.318182e+00 1.200000e+00 0.000000e+00
2.272727e+00 1.200000e+00 0.000000e+00
3.227273e+00 1.200000e+00 0.000000e+00
4.181818e+00 1.200000e+00 0.000000e+00
5.136364e+00 1.200000e+00 0.000000e+00
6.090909e+00 1.200000e+00 0.000000e+00
7.045455e+00 1.200000e+00 0.000000e+00
8.000000e+00 1.200000e+00 0.000000e+00
-2.500000e+00 2.066667e+00 0.000000e+00
-1.545455e+00 2.066667e+00 0.000000e+00
-5.909091e-01 2.066667e+00 0.000000e+00
3.636364e-01 2.066667e+00 0.000000e+00
1.318182e+00 2.066667e+00 0.000000e+00
2.272727e+00 2.066667e+00 0.000000e+00
3.227273e+00 2.066667e+00 0.000000e+00
4.181818e+00 2.066667e+00 0.000000e+00
5.136364e+00 2.066667e+00 0.000000e+00
6.090909e+00 2.066667e+00 0.000000e+00
7.045455e+00 2.066667e+00 0.000000e+00
8.000000e+00 2.066667e+00 0.000000e+00
-2.500000e+00 2.933333e+00 0.000000e+00
-1.545455e+00 2.933333e+00 0.000000e+00
-5.909091e-01 2.933333e+00 0.000000e+00
3.636364e-01 2.933333e+00 0.000000e+00
1.318182e+00 2.933333e+00 0.000000e+00
2.272727e+00 2.933333e+00 0.000000e+00
3.227273e+00 2.933333e+00 0.000000e+00
4.181818e+00 2.933333e+00 0.000000e+00
5.136364e+00 2.933333e+00 0.000000e+00
6.090909e+00 2.933333e+00 0.000000e+00
7.045455e+00 2.933333e+00 0.000000e+00
8.000000e+00 2.933333e+00 0.000000e+00
-2.500000e+00 3.800000e+00 0.000000e+00
-1.545455e+00 3.800000e+00 0.000000e+00
-5.909091e-01 3.800000e+00 0.000000e+00
3.636364e-01 3.800000e+00 0.000000e+00
1.318182e+00 3.800000e+00 0.000000e+00
2.272727e+00 3.800000e+00 0.000000e+00
3.227273e+00 3.800000e+00 0.000000e+00
4.181818e+00 3.800000e+00 0.000000e+00
5.136364e+00 3.800000e+00 0.000000e+00
6.090909e+00 3.800000e+00 0.000000e+00
7.045455e+00 3.800000e+00 0.000000e+00
8.000000e+00 3.800000e+00 0.000000e+00
</DataArray>
</Points>
<Cells>
<DataArray Name="connectivity" type="Int32" format="ascii">
0 12
12 24
24 36
11 23
23 35
35 47
0 1
1 2
2 3
3 4
4 5
5 6
6 7
7 8
8 9
9 10
10 11
36 37
37 38
38 39
39 40
40 41
41 42
42 43
43 44
44 45
45 46
46 47
</DataArray>
<DataArray Name="offsets" type="Int32" format="ascii">
2
4
6
8
10
12
14
16
18
20
22
24
26
28
30
32
34
36
38
40
42
44
46
48
50
52
54
56
</DataArray>
<DataArray Name="types" type="UInt8" format="ascii">
3
3
3
3
3
3
3
3
3
3
3
3
3
3
3
3
3
3
3
3
3
3
3
3
3
3
3
3
</DataArray>
</Cells>
<CellData>
<DataArray Name="data" type="Float64" NumberOfComponents="3" format="ascii">
-2.500000e+00 -5.000000e+00 0.000000e+00
-2.500000e+00 -5.000000e+00 0.000000e+00
-2.500000e+00 -5.000000e+00 0.000000e+00
8.000000e+00 1.600000e+01 0.000000e+00
8.000000e+00 1.600000e+01 0.000000e+00
8.000000e+00 1.600000e+01 0.000000e+00
-2.022727e+00 -4.045455e+00 0.000000e+00
-1.068182e+00 -2.136364e+00 0.000000e+00
-1.136364e-01 -2.272727e-01 0.000000e+00
8.409091e-01 1.681818e+00 0.000000e+00
1.795455e+00 3.590909e+00 0.000000e+00
2.750000e+00 5.500000e+00 0.000000e+00
3.704545e+00 7.409091e+00 0.000000e+00
4.659091e+00 9.318182e+00 0.000000e+00
5.613636e+00 1.122727e+01 0.000000e+00
6.568182e+00 1.313636e+01 0.000000e+00
7.522727e+00 1.504545e+01 0.000000e+00
-2.022727e+00 -4.045455e+00 0.000000e+00
-1.068182e+00 -2.136364e+00 0.000000e+00
-1.136364e-01 -2.272727e-01 0.000000e+00
8.409091e-01 1.681818e+00 0.000000e+00
1.795455e+00 3.590909e+00 0.000000e+00
2.750000e+00 5.500000e+00 0.000000e+00
3.704545e+00 7.409091e+00 0.000000e+00
4.659091e+00 9.318182e+00 0.000000e+00
5.613636e+00 1.122727e+01 0.000000e+00
6.568182e+00 1.313636e+01 0.000000e+00
7.522727e+00 1.504545e+01 0.000000e+00
</DataArray>
<DataArray Name="mesh_vars/FaceElements_Id" type="Float64" NumberOfComponents="1" format="ascii">
0.000000e+00
1.000000e+00
2.000000e+00
3.000000e+00
4.000000e+00
5.000000e+00
6.000000e+00
7.000000e+00
8.000000e+00
9.000000e+00
1.000000e+01
1.100000e+01
1.200000e+01
1.300000e+01
1.400000e+01
1.500000e+01
1.600000e+01
1.700000e+01
1.800000e+01
1.900000e+01
2.000000e+01
2.100000e+01
2.200000e+01
2.300000e+01
2.400000e+01
2.500000e+01
2.600000e+01
2.700000e+01
</DataArray>
<DataArray Name="mesh_vars/FaceElements_Owner" type="Float64" NumberOfComponents="1" format="ascii">
0.000000e+00
0.000000e+00
0.000000e+00
0.000000e+00
0.000000e+00
0.000000e+00
0.000000e+00
0.000000e+00
0.000000e+00
0.000000e+00
0.000000e+00
0.000000e+00
0.000000e+00
0.000000e+00
0.000000e+00
0.000000e+00
0.000000e+00
0.000000e+00
0.000000e+00
0.000000e+00
0.000000e+00
0.000000e+00
0.000000e+00
0.000000e+00
0.000000e+00
0.000000e+00
0.000000e+00
0.000000e+00
</DataArray>
<DataArray Name="mesh_vars/FaceElements_Tag" type="Float64" NumberOfComponents="1" format="ascii">
0.000000e+00
1.000000e+00
2.000000e+00
3.000000e+00
4.000000e+00
5.000000e+00
6.000000e+00
7.000000e+00
8.000000e+00
9.000000e+00
1.000000e+01
1.100000e+01
1.200000e+01
1.300000e+01
1.400000e+01
1.500000e+01
1.600000e+01
1.700000e+01
1.800000e+01
1.900000e+01
2.000000e+01
2.100000e+01
2.200000e+01
2.300000e+01
2.400000e+01
2.500000e+01
2.600000e+01
2.700000e+01
</DataArray>
</CellData>
</Piece>
</UnstructuredGrid>
</VTKFile>
