<?xml version="1.0"?>
<VTKFile type="UnstructuredGrid" version="0.1">
<UnstructuredGrid>
<FieldData>
<DataArray Name="TIME" type="Float64" format="ascii" NumberOfTuples="1">
0.000000e+00
</DataArray>
</FieldData>
<FieldData>
<DataArray Name="CYCLE" type="Int32" format="ascii" NumberOfTuples="1">
0
</DataArray>
</FieldData>
<Piece NumberOfPoints="53" NumberOfCells="80">
<Points>
<DataArray NumberOfComponents="3" type="Float64" format="ascii">
1.000000e+00 1.000000e+00 0.000000e+00
1.000000e+00 6.666667e-01 0.000000e+00
1.000000e+00 8.333333e-01 0.000000e+00
1.000000e+00 3.333333e-01 0.000000e+00
1.000000e+00 5.000000e-01 0.000000e+00
1.000000e+00 0.000000e+00 0.000000e+00
1.000000e+00 1.666667e-01 0.000000e+00
6.666667e-01 0.000000e+00 0.000000e+00
8.333333e-01 0.000000e+00 0.000000e+00
3.333333e-01 0.000000e+00 0.000000e+00
5.000000e-01 0.000000e+00 0.000000e+00
0.000000e+00 0.000000e+00 0.000000e+00
1.666667e-01 0.000000e+00 0.000000e+00
0.000000e+00 1.000000e+00 0.000000e+00
0.000000e+00 6.666667e-01 0.000000e+00
0.000000e+00 8.333333e-01 0.000000e+00
0.000000e+00 3.333333e-01 0.000000e+00
0.000000e+00 5.000000e-01 0.000000e+00
0.000000e+00 1.666667e-01 0.000000e+00
3.333333e-01 1.000000e+00 0.000000e+00
1.666667e-01 1.000000e+00 0.000000e+00
6.666667e-01 1.000000e+00 0.000000e+00
5.000000e-01 1.000000e+00 0.000000e+00
8.333333e-01 1.000000e+00 0.000000e+00
7.014658e-01 2.986558e-01 0.000000e+00
3.239390e-01 2.773111e-01 0.000000e+00
6.840662e-01 1.493279e-01 0.000000e+00
4.953028e-01 1.386555e-01 0.000000e+00
5.127023e-01 2.879834e-01 0.000000e+00
3.286361e-01 1.386555e-01 0.000000e+00
3.050581e-01 6.950284e-01 0.000000e+00
1.619695e-01 3.053222e-01 0.000000e+00
1.525290e-01 5.141808e-01 0.000000e+00
3.144985e-01 4.861697e-01 0.000000e+00
1.525290e-01 6.808475e-01 0.000000e+00
7.227778e-01 6.761019e-01 0.000000e+00
6.947222e-01 8.380510e-01 0.000000e+00
5.139179e-01 6.855651e-01 0.000000e+00
4.858623e-01 8.475142e-01 0.000000e+00
8.507329e-01 3.159946e-01 0.000000e+00
7.121218e-01 4.873788e-01 0.000000e+00
8.613889e-01 5.047176e-01 0.000000e+00
3.191957e-01 8.475142e-01 0.000000e+00
8.613889e-01 6.713843e-01 0.000000e+00
5.000690e-01 5.000334e-01 0.000000e+00
6.007674e-01 3.993446e-01 0.000000e+00
4.120040e-01 3.886723e-01 0.000000e+00
1.525290e-01 8.475142e-01 0.000000e+00
8.613889e-01 8.380510e-01 0.000000e+00
8.507329e-01 1.493279e-01 0.000000e+00
4.025635e-01 5.975309e-01 0.000000e+00
6.114234e-01 5.880677e-01 0.000000e+00
1.619695e-01 1.386555e-01 0.000000e+00
</DataArray>
</Points>
<Cells>
<DataArray Name="connectivity" type="Int32" format="ascii">
21 23 36
36 48 35
23 0 48
48 36 23
0 2 48
48 43 35
2 1 43
43 48 2
1 4 43
43 41 35
4 3 41
41 43 4
3 39 41
41 40 35
39 24 40
40 41 39
3 6 39
39 49 24
6 5 49
49 39 6
5 8 49
49 26 24
8 7 26
26 49 8
24 26 28
28 27 25
26 7 27
27 28 26
7 10 27
27 29 25
10 9 29
29 27 10
9 12 29
29 52 25
12 11 52
52 29 12
11 18 52
52 31 25
18 16 31
31 52 18
13 20 47
47 42 30
20 19 42
42 47 20
14 15 34
34 47 30
15 13 47
47 34 15
16 17 32
32 34 30
17 14 34
34 32 17
25 31 33
33 32 30
31 16 32
32 33 31
19 22 42
42 38 30
22 21 38
38 42 22
21 36 38
38 37 30
36 35 37
37 38 36
44 45 46
46 28 25
45 24 28
28 46 45
24 45 40
40 51 35
45 44 51
51 40 45
44 46 50
50 33 30
46 25 33
33 50 46
35 51 37
37 50 30
51 44 50
50 37 51
</DataArray>
<DataArray Name="offsets" type="Int32" format="ascii">
3
6
9
12
15
18
21
24
27
30
33
36
39
42
45
48
51
54
57
60
63
66
69
72
75
78
81
84
87
90
93
96
99
102
105
108
111
114
117
120
123
126
129
132
135
138
141
144
147
150
153
156
159
162
165
168
171
174
177
180
183
186
189
192
195
198
201
204
207
210
213
216
219
222
225
228
231
234
237
240
</DataArray>
<DataArray Name="types" type="UInt8" format="ascii">
5
5
5
5
5
5
5
5
5
5
5
5
5
5
5
5
5
5
5
5
5
5
5
5
5
5
5
5
5
5
5
5
5
5
5
5
5
5
5
5
5
5
5
5
5
5
5
5
5
5
5
5
5
5
5
5
5
5
5
5
5
5
5
5
5
5
5
5
5
5
5
5
5
5
5
5
5
5
5
5
</DataArray>
</Cells>
<PointData>
<DataArray Name="data_sp" type="Float64" NumberOfComponents="1" format="ascii">
1.000000e+00
1.000000e+00
1.000000e+00
1.000000e+00
1.000000e+00
1.000000e+00
1.000000e+00
6.666667e-01
8.333333e-01
3.333333e-01
5.000000e-01
0.000000e+00
1.666667e-01
0.000000e+00
0.000000e+00
0.000000e+00
0.000000e+00
0.000000e+00
0.000000e+00
3.333333e-01
1.666667e-01
6.666667e-01
5.000000e-01
8.333333e-01
7.014658e-01
3.239390e-01
6.840662e-01
4.953028e-01
5.127023e-01
3.286361e-01
3.050581e-01
1.619695e-01
1.525290e-01
3.144985e-01
1.525290e-01
7.227778e-01
6.947222e-01
5.139179e-01
4.858623e-01
8.507329e-01
7.121218e-01
8.613889e-01
3.191957e-01
8.613889e-01
5.000690e-01
6.007674e-01
4.120040e-01
1.525290e-01
8.613889e-01
8.507329e-01
4.025635e-01
6.114234e-01
1.619695e-01
</DataArray>
<DataArray Name="data_tp" type="Float64" NumberOfComponents="9" format="ascii">
1.100000e+01 2.100000e+01 0.000000e+00 1.200000e+01 2.200000e+01 0.000000e+00 0.000000e+00 0.000000e+00 0.000000e+00
1.100000e+01 2.100000e+01 0.000000e+00 1.200000e+01 2.200000e+01 0.000000e+00 0.000000e+00 0.000000e+00 0.000000e+00
1.100000e+01 2.100000e+01 0.000000e+00 1.200000e+01 2.200000e+01 0.000000e+00 0.000000e+00 0.000000e+00 0.000000e+00
1.100000e+01 2.100000e+01 0.000000e+00 1.200000e+01 2.200000e+01 0.000000e+00 0.000000e+00 0.000000e+00 0.000000e+00
1.100000e+01 2.100000e+01 0.000000e+00 1.200000e+01 2.200000e+01 0.000000e+00 0.000000e+00 0.000000e+00 0.000000e+00
1.100000e+01 2.100000e+01 0.000000e+00 1.200000e+01 2.200000e+01 0.000000e+00 0.000000e+00 0.000000e+00 0.000000e+00
1.100000e+01 2.100000e+01 0.000000e+00 1.200000e+01 2.200000e+01 0.000000e+00 0.000000e+00 0.000000e+00 0.000000e+00
7.333333e+00 1.400000e+01 0.000000e+00 8.000000e+00 1.466667e+01 0.000000e+00 0.000000e+00 0.000000e+00 0.000000e+00
9.166667e+00 1.750000e+01 0.000000e+00 1.000000e+01 1.833333e+01 0.000000e+00 0.000000e+00 0.000000e+00 0.000000e+00
3.666667e+00 7.000000e+00 0.000000e+00 4.000000e+00 7.333333e+00 0.000000e+00 0.000000e+00 0.000000e+00 0.000000e+00
5.500000e+00 1.050000e+01 0.000000e+00 6.000000e+00 1.100000e+01 0.000000e+00 0.000000e+00 0.000000e+00 0.000000e+00
0.000000e+00 0.000000e+00 0.000000e+00 0.000000e+00 0.000000e+00 0.000000e+00 0.000000e+00 0.000000e+00 0.000000e+00
1.833333e+00 3.500000e+00 0.000000e+00 2.000000e+00 3.666667e+00 0.000000e+00 0.000000e+00 0.000000e+00 0.000000e+00
0.000000e+00 0.000000e+00 0.000000e+00 0.000000e+00 0.000000e+00 0.000000e+00 0.000000e+00 0.000000e+00 0.000000e+00
0.000000e+00 0.000000e+00 0.000000e+00 0.000000e+00 0.000000e+00 0.000000e+00 0.000000e+00 0.000000e+00 0.000000e+00
0.000000e+00 0.000000e+00 0.000000e+00 0.000000e+00 0.000000e+00 0.000000e+00 0.000000e+00 0.000000e+00 0.000000e+00
0.000000e+00 0.000000e+00 0.000000e+00 0.000000e+00 0.000000e+00 0.000000e+00 0.000000e+00 0.000000e+00 0.000000e+00
0.000000e+00 0.000000e+00 0.000000e+00 0.000000e+00 0.000000e+00 0.000000e+00 0.000000e+00 0.000000e+00 0.000000e+00
0.000000e+00 0.000000e+00 0.000000e+00 0.000000e+00 0.000000e+00 0.000000e+00 0.000000e+00 0.000000e+00 0.000000e+00
3.666667e+00 7.000000e+00 0.000000e+00 4.000000e+00 7.333333e+00 0.000000e+00 0.000000e+00 0.000000e+00 0.000000e+00
1.833333e+00 3.500000e+00 0.000000e+00 2.000000e+00 3.666667e+00 0.000000e+00 0.000000e+00 0.000000e+00 0.000000e+00
7.333333e+00 1.400000e+01 0.000000e+00 8.000000e+00 1.466667e+01 0.000000e+00 0.000000e+00 0.000000e+00 0.000000e+00
5.500000e+00 1.050000e+01 0.000000e+00 6.000000e+00 1.100000e+01 0.000000e+00 0.000000e+00 0.000000e+00 0.000000e+00
9.166667e+00 1.750000e+01 0.000000e+00 1.000000e+01 1.833333e+01 0.000000e+00 0.000000e+00 0.000000e+00 0.000000e+00
7.716124e+00 1.473078e+01 0.000000e+00 8.417589e+00 1.543225e+01 0.000000e+00 0.000000e+00 0.000000e+00 0.000000e+00
3.563329e+00 6.802718e+00 0.000000e+00 3.887268e+00 7.126657e+00 0.000000e+00 0.000000e+00 0.000000e+00 0.000000e+00
7.524728e+00 1.436539e+01 0.000000e+00 8.208795e+00 1.504946e+01 0.000000e+00 0.000000e+00 0.000000e+00 0.000000e+00
5.448331e+00 1.040136e+01 0.000000e+00 5.943634e+00 1.089666e+01 0.000000e+00 0.000000e+00 0.000000e+00 0.000000e+00
5.639726e+00 1.076675e+01 0.000000e+00 6.152429e+00 1.127945e+01 0.000000e+00 0.000000e+00 0.000000e+00 0.000000e+00
3.614998e+00 6.901359e+00 0.000000e+00 3.943634e+00 7.229995e+00 0.000000e+00 0.000000e+00 0.000000e+00 0.000000e+00
3.355639e+00 6.406219e+00 0.000000e+00 3.660697e+00 6.711277e+00 0.000000e+00 0.000000e+00 0.000000e+00 0.000000e+00
1.781664e+00 3.401359e+00 0.000000e+00 1.943634e+00 3.563329e+00 0.000000e+00 0.000000e+00 0.000000e+00 0.000000e+00
1.677819e+00 3.203110e+00 0.000000e+00 1.830348e+00 3.355639e+00 0.000000e+00 0.000000e+00 0.000000e+00 0.000000e+00
3.459484e+00 6.604469e+00 0.000000e+00 3.773982e+00 6.918967e+00 0.000000e+00 0.000000e+00 0.000000e+00 0.000000e+00
1.677819e+00 3.203110e+00 0.000000e+00 1.830348e+00 3.355639e+00 0.000000e+00 0.000000e+00 0.000000e+00 0.000000e+00
7.950556e+00 1.517833e+01 0.000000e+00 8.673333e+00 1.590111e+01 0.000000e+00 0.000000e+00 0.000000e+00 0.000000e+00
7.641944e+00 1.458917e+01 0.000000e+00 8.336667e+00 1.528389e+01 0.000000e+00 0.000000e+00 0.000000e+00 0.000000e+00
5.653097e+00 1.079228e+01 0.000000e+00 6.167015e+00 1.130619e+01 0.000000e+00 0.000000e+00 0.000000e+00 0.000000e+00
5.344486e+00 1.020311e+01 0.000000e+00 5.830348e+00 1.068897e+01 0.000000e+00 0.000000e+00 0.000000e+00 0.000000e+00
9.358062e+00 1.786539e+01 0.000000e+00 1.020879e+01 1.871612e+01 0.000000e+00 0.000000e+00 0.000000e+00 0.000000e+00
7.833340e+00 1.495456e+01 0.000000e+00 8.545462e+00 1.566668e+01 0.000000e+00 0.000000e+00 0.000000e+00 0.000000e+00
9.475278e+00 1.808917e+01 0.000000e+00 1.033667e+01 1.895056e+01 0.000000e+00 0.000000e+00 0.000000e+00 0.000000e+00
3.511153e+00 6.703110e+00 0.000000e+00 3.830348e+00 7.022305e+00 0.000000e+00 0.000000e+00 0.000000e+00 0.000000e+00
9.475278e+00 1.808917e+01 0.000000e+00 1.033667e+01 1.895056e+01 0.000000e+00 0.000000e+00 0.000000e+00 0.000000e+00
5.500759e+00 1.050145e+01 0.000000e+00 6.000828e+00 1.100152e+01 0.000000e+00 0.000000e+00 0.000000e+00 0.000000e+00
6.608441e+00 1.261612e+01 0.000000e+00 7.209208e+00 1.321688e+01 0.000000e+00 0.000000e+00 0.000000e+00 0.000000e+00
4.532044e+00 8.652083e+00 0.000000e+00 4.944048e+00 9.064088e+00 0.000000e+00 0.000000e+00 0.000000e+00 0.000000e+00
1.677819e+00 3.203110e+00 0.000000e+00 1.830348e+00 3.355639e+00 0.000000e+00 0.000000e+00 0.000000e+00 0.000000e+00
9.475278e+00 1.808917e+01 0.000000e+00 1.033667e+01 1.895056e+01 0.000000e+00 0.000000e+00 0.000000e+00 0.000000e+00
9.358062e+00 1.786539e+01 0.000000e+00 1.020879e+01 1.871612e+01 0.000000e+00 0.000000e+00 0.000000e+00 0.000000e+00
4.428199e+00 8.453834e+00 0.000000e+00 4.830762e+00 8.856398e+00 0.000000e+00 0.000000e+00 0.000000e+00 0.000000e+00
6.725657e+00 1.283989e+01 0.000000e+00 7.337081e+00 1.345131e+01 0.000000e+00 0.000000e+00 0.000000e+00 0.000000e+00
1.781664e+00 3.401359e+00 0.000000e+00 1.943634e+00 3.563329e+00 0.000000e+00 0.000000e+00 0.000000e+00 0.000000e+00
</DataArray>
<DataArray Name="data_vp" type="Float64" NumberOfComponents="3" format="ascii">
1.000000e+00 2.000000e+00 0.000000e+00
1.000000e+00 2.000000e+00 0.000000e+00
1.000000e+00 2.000000e+00 0.000000e+00
1.000000e+00 2.000000e+00 0.000000e+00
1.000000e+00 2.000000e+00 0.000000e+00
1.000000e+00 2.000000e+00 0.000000e+00
1.000000e+00 2.000000e+00 0.000000e+00
6.666667e-01 1.333333e+00 0.000000e+00
8.333333e-01 1.666667e+00 0.000000e+00
3.333333e-01 6.666667e-01 0.000000e+00
5.000000e-01 1.000000e+00 0.000000e+00
0.000000e+00 0.000000e+00 0.000000e+00
1.666667e-01 3.333333e-01 0.000000e+00
0.000000e+00 0.000000e+00 0.000000e+00
0.000000e+00 0.000000e+00 0.000000e+00
0.000000e+00 0.000000e+00 0.000000e+00
0.000000e+00 0.000000e+00 0.000000e+00
0.000000e+00 0.000000e+00 0.000000e+00
0.000000e+00 0.000000e+00 0.000000e+00
3.333333e-01 6.666667e-01 0.000000e+00
1.666667e-01 3.333333e-01 0.000000e+00
6.666667e-01 1.333333e+00 0.000000e+00
5.000000e-01 1.000000e+00 0.000000e+00
8.333333e-01 1.666667e+00 0.000000e+00
7.014658e-01 1.402932e+00 0.000000e+00
3.239390e-01 6.478779e-01 0.000000e+00
6.840662e-01 1.368132e+00 0.000000e+00
4.953028e-01 9.906057e-01 0.000000e+00
5.127023e-01 1.025405e+00 0.000000e+00
3.286361e-01 6.572723e-01 0.000000e+00
3.050581e-01 6.101161e-01 0.000000e+00
1.619695e-01 3.239390e-01 0.000000e+00
1.525290e-01 3.050581e-01 0.000000e+00
3.144985e-01 6.289970e-01 0.000000e+00
1.525290e-01 3.050581e-01 0.000000e+00
7.227778e-01 1.445556e+00 0.000000e+00
6.947222e-01 1.389444e+00 0.000000e+00
5.139179e-01 1.027836e+00 0.000000e+00
4.858623e-01 9.717247e-01 0.000000e+00
8.507329e-01 1.701466e+00 0.000000e+00
7.121218e-01 1.424244e+00 0.000000e+00
8.613889e-01 1.722778e+00 0.000000e+00
3.191957e-01 6.383914e-01 0.000000e+00
8.613889e-01 1.722778e+00 0.000000e+00
5.000690e-01 1.000138e+00 0.000000e+00
6.007674e-01 1.201535e+00 0.000000e+00
4.120040e-01 8.240079e-01 0.000000e+00
1.525290e-01 3.050581e-01 0.000000e+00
8.613889e-01 1.722778e+00 0.000000e+00
8.507329e-01 1.701466e+00 0.000000e+00
4.025635e-01 8.051270e-01 0.000000e+00
6.114234e-01 1.222847e+00 0.000000e+00
1.619695e-01 3.239390e-01 0.000000e+00
</DataArray>
<DataArray Name="mesh_vars/Nodes_Id" type="Float64" NumberOfComponents="1" format="ascii">
0.000000e+00
1.000000e+00
2.000000e+00
3.000000e+00
4.000000e+00
5.000000e+00
6.000000e+00
7.000000e+00
8.000000e+00
9.000000e+00
1.000000e+01
1.100000e+01
1.200000e+01
1.300000e+01
1.400000e+01
1.500000e+01
1.600000e+01
1.700000e+01
1.800000e+01
1.900000e+01
2.000000e+01
2.100000e+01
2.200000e+01
2.300000e+01
2.400000e+01
2.500000e+01
2.600000e+01
2.700000e+01
2.800000e+01
2.900000e+01
3.000000e+01
3.100000e+01
3.200000e+01
3.300000e+01
3.400000e+01
3.500000e+01
3.600000e+01
3.700000e+01
3.800000e+01
3.900000e+01
4.000000e+01
4.100000e+01
4.200000e+01
4.300000e+01
4.400000e+01
4.500000e+01
4.600000e+01
4.700000e+01
4.800000e+01
4.900000e+01
5.000000e+01
5.100000e+01
5.200000e+01
</DataArray>
<DataArray Name="mesh_vars/Nodes_Tag" type="Float64" NumberOfComponents="1" format="ascii">
0.000000e+00
0.000000e+00
0.000000e+00
0.000000e+00
0.000000e+00
0.000000e+00
0.000000e+00
0.000000e+00
0.000000e+00
0.000000e+00
0.000000e+00
0.000000e+00
0.000000e+00
0.000000e+00
0.000000e+00
0.000000e+00
0.000000e+00
0.000000e+00
0.000000e+00
0.000000e+00
0.000000e+00
0.000000e+00
0.000000e+00
0.000000e+00
0.000000e+00
0.000000e+00
0.000000e+00
0.000000e+00
0.000000e+00
0.000000e+00
0.000000e+00
0.000000e+00
0.000000e+00
0.000000e+00
0.000000e+00
0.000000e+00
0.000000e+00
0.000000e+00
0.000000e+00
0.000000e+00
0.000000e+00
0.000000e+00
0.000000e+00
0.000000e+00
0.000000e+00
0.000000e+00
0.000000e+00
0.000000e+00
0.000000e+00
0.000000e+00
0.000000e+00
0.000000e+00
0.000000e+00
</DataArray>
<DataArray Name="mesh_vars/Nodes_gDOF" type="Float64" NumberOfComponents="1" format="ascii">
0.000000e+00
1.000000e+00
2.000000e+00
3.000000e+00
4.000000e+00
5.000000e+00
6.000000e+00
7.000000e+00
8.000000e+00
9.000000e+00
1.000000e+01
1.100000e+01
1.200000e+01
1.300000e+01
1.400000e+01
1.500000e+01
1.600000e+01
1.700000e+01
1.800000e+01
1.900000e+01
2.000000e+01
2.100000e+01
2.200000e+01
2.300000e+01
2.400000e+01
2.500000e+01
2.600000e+01
2.700000e+01
2.800000e+01
2.900000e+01
3.000000e+01
3.100000e+01
3.200000e+01
3.300000e+01
3.400000e+01
3.500000e+01
3.600000e+01
3.700000e+01
3.800000e+01
3.900000e+01
4.000000e+01
4.100000e+01
4.200000e+01
4.300000e+01
4.400000e+01
4.500000e+01
4.600000e+01
4.700000e+01
4.800000e+01
4.900000e+01
5.000000e+01
5.100000e+01
5.200000e+01
</DataArray>
<DataArray Name="mesh_vars/Nodes_gNI" type="Float64" NumberOfComponents="1" format="ascii">
0.000000e+00
1.000000e+00
2.000000e+00
3.000000e+00
4.000000e+00
5.000000e+00
6.000000e+00
7.000000e+00
8.000000e+00
9.000000e+00
1.000000e+01
1.100000e+01
1.200000e+01
1.300000e+01
1.400000e+01
1.500000e+01
1.600000e+01
1.700000e+01
1.800000e+01
1.900000e+01
2.000000e+01
2.100000e+01
2.200000e+01
2.300000e+01
2.400000e+01
2.500000e+01
2.600000e+01
2.700000e+01
2.800000e+01
2.900000e+01
3.000000e+01
3.100000e+01
3.200000e+01
3.300000e+01
3.400000e+01
3.500000e+01
3.600000e+01
3.700000e+01
3.800000e+01
3.900000e+01
4.000000e+01
4.100000e+01
4.200000e+01
4.300000e+01
4.400000e+01
4.500000e+01
4.600000e+01
4.700000e+01
4.800000e+01
4.900000e+01
5.000000e+01
5.100000e+01
5.200000e+01
</DataArray>
<DataArray Name="mesh_vars/Nodes_grDfI" type="Float64" NumberOfComponents="1" format="ascii">
0.000000e+00
1.000000e+00
-1.000000e+00
2.000000e+00
-1.000000e+00
3.000000e+00
-1.000000e+00
4.000000e+00
-1.000000e+00
5.000000e+00
-1.000000e+00
6.000000e+00
-1.000000e+00
7.000000e+00
8.000000e+00
-1.000000e+00
9.000000e+00
-1.000000e+00
-1.000000e+00
1.000000e+01
-1.000000e+00
1.100000e+01
-1.000000e+00
-1.000000e+00
1.200000e+01
1.300000e+01
-1.000000e+00
-1.000000e+00
-1.000000e+00
-1.000000e+00
1.400000e+01
-1.000000e+00
-1.000000e+00
-1.000000e+00
-1.000000e+00
1.500000e+01
-1.000000e+00
-1.000000e+00
-1.000000e+00
-1.000000e+00
-1.000000e+00
-1.000000e+00
-1.000000e+00
-1.000000e+00
1.600000e+01
-1.000000e+00
-1.000000e+00
-1.000000e+00
-1.000000e+00
-1.000000e+00
-1.000000e+00
-1.000000e+00
-1.000000e+00
</DataArray>
<DataArray Name="mesh_vars/Nodes_grNI" type="Float64" NumberOfComponents="1" format="ascii">
0.000000e+00
1.000000e+00
-1.000000e+00
2.000000e+00
-1.000000e+00
3.000000e+00
-1.000000e+00
4.000000e+00
-1.000000e+00
5.000000e+00
-1.000000e+00
6.000000e+00
-1.000000e+00
7.000000e+00
8.000000e+00
-1.000000e+00
9.000000e+00
-1.000000e+00
-1.000000e+00
1.000000e+01
-1.000000e+00
1.100000e+01
-1.000000e+00
-1.000000e+00
1.200000e+01
1.300000e+01
-1.000000e+00
-1.000000e+00
-1.000000e+00
-1.000000e+00
1.400000e+01
-1.000000e+00
-1.000000e+00
-1.000000e+00
-1.000000e+00
1.500000e+01
-1.000000e+00
-1.000000e+00
-1.000000e+00
-1.000000e+00
-1.000000e+00
-1.000000e+00
-1.000000e+00
-1.000000e+00
1.600000e+01
-1.000000e+00
-1.000000e+00
-1.000000e+00
-1.000000e+00
-1.000000e+00
-1.000000e+00
-1.000000e+00
-1.000000e+00
</DataArray>
</PointData>
<CellData>
<DataArray Name="data_sc" type="Float64" NumberOfComponents="1" format="ascii">
7.396875e-01
7.642361e-01
8.855208e-01
7.964815e-01
9.480208e-01
8.267361e-01
9.480208e-01
9.075926e-01
9.480208e-01
8.267361e-01
9.480208e-01
9.075926e-01
8.920457e-01
7.707610e-01
7.614369e-01
8.080812e-01
9.440249e-01
8.134161e-01
9.440249e-01
9.004886e-01
8.815248e-01
7.509161e-01
7.356915e-01
7.893775e-01
6.241547e-01
4.589867e-01
6.089301e-01
5.640238e-01
5.399052e-01
3.899618e-01
3.940719e-01
4.413130e-01
2.690719e-01
2.649618e-01
1.232386e-01
2.190908e-01
6.073856e-02
2.024619e-01
6.073856e-02
1.079797e-01
1.196984e-01
2.531613e-01
2.655317e-01
2.127971e-01
5.719839e-02
1.906613e-01
5.719839e-02
1.016860e-01
5.719839e-02
1.906613e-01
5.719839e-02
1.016860e-01
2.596602e-01
2.513998e-01
1.179369e-01
2.096657e-01
3.905317e-01
3.781613e-01
5.363650e-01
4.350193e-01
6.093858e-01
4.511821e-01
6.339345e-01
5.648342e-01
5.048065e-01
4.277496e-01
5.929176e-01
5.084912e-01
6.676999e-01
6.770239e-01
5.795888e-01
6.414375e-01
4.304801e-01
3.451627e-01
3.534232e-01
3.763553e-01
6.026974e-01
4.199451e-01
5.052624e-01
5.093016e-01
</DataArray>
<DataArray Name="data_tc" type="Float64" NumberOfComponents="9" format="ascii">
8.136562e+00 1.553344e+01 0.000000e+00 8.876249e+00 1.627312e+01 0.000000e+00 0.000000e+00 0.000000e+00 0.000000e+00
8.406597e+00 1.604896e+01 0.000000e+00 9.170834e+00 1.681319e+01 0.000000e+00 0.000000e+00 0.000000e+00 0.000000e+00
9.740729e+00 1.859594e+01 0.000000e+00 1.062625e+01 1.948146e+01 0.000000e+00 0.000000e+00 0.000000e+00 0.000000e+00
8.761296e+00 1.672611e+01 0.000000e+00 9.557777e+00 1.752259e+01 0.000000e+00 0.000000e+00 0.000000e+00 0.000000e+00
1.042823e+01 1.990844e+01 0.000000e+00 1.137625e+01 2.085646e+01 0.000000e+00 0.000000e+00 0.000000e+00 0.000000e+00
9.094097e+00 1.736146e+01 0.000000e+00 9.920834e+00 1.818819e+01 0.000000e+00 0.000000e+00 0.000000e+00 0.000000e+00
1.042823e+01 1.990844e+01 0.000000e+00 1.137625e+01 2.085646e+01 0.000000e+00 0.000000e+00 0.000000e+00 0.000000e+00
9.983519e+00 1.905944e+01 0.000000e+00 1.089111e+01 1.996704e+01 0.000000e+00 0.000000e+00 0.000000e+00 0.000000e+00
1.042823e+01 1.990844e+01 0.000000e+00 1.137625e+01 2.085646e+01 0.000000e+00 0.000000e+00 0.000000e+00 0.000000e+00
9.094097e+00 1.736146e+01 0.000000e+00 9.920834e+00 1.818819e+01 0.000000e+00 0.000000e+00 0.000000e+00 0.000000e+00
1.042823e+01 1.990844e+01 0.000000e+00 1.137625e+01 2.085646e+01 0.000000e+00 0.000000e+00 0.000000e+00 0.000000e+00
9.983519e+00 1.905944e+01 0.000000e+00 1.089111e+01 1.996704e+01 0.000000e+00 0.000000e+00 0.000000e+00 0.000000e+00
9.812502e+00 1.873296e+01 0.000000e+00 1.070455e+01 1.962500e+01 0.000000e+00 0.000000e+00 0.000000e+00 0.000000e+00
8.478371e+00 1.618598e+01 0.000000e+00 9.249131e+00 1.695674e+01 0.000000e+00 0.000000e+00 0.000000e+00 0.000000e+00
8.375807e+00 1.599018e+01 0.000000e+00 9.137243e+00 1.675161e+01 0.000000e+00 0.000000e+00 0.000000e+00 0.000000e+00
8.888893e+00 1.696971e+01 0.000000e+00 9.696974e+00 1.777779e+01 0.000000e+00 0.000000e+00 0.000000e+00 0.000000e+00
1.038427e+01 1.982452e+01 0.000000e+00 1.132830e+01 2.076855e+01 0.000000e+00 0.000000e+00 0.000000e+00 0.000000e+00
8.947577e+00 1.708174e+01 0.000000e+00 9.760994e+00 1.789515e+01 0.000000e+00 0.000000e+00 0.000000e+00 0.000000e+00
1.038427e+01 1.982452e+01 0.000000e+00 1.132830e+01 2.076855e+01 0.000000e+00 0.000000e+00 0.000000e+00 0.000000e+00
9.905375e+00 1.891026e+01 0.000000e+00 1.080586e+01 1.981075e+01 0.000000e+00 0.000000e+00 0.000000e+00 0.000000e+00
9.696774e+00 1.851202e+01 0.000000e+00 1.057830e+01 1.939355e+01 0.000000e+00 0.000000e+00 0.000000e+00 0.000000e+00
8.260077e+00 1.576924e+01 0.000000e+00 9.010994e+00 1.652015e+01 0.000000e+00 0.000000e+00 0.000000e+00 0.000000e+00
8.092607e+00 1.544952e+01 0.000000e+00 8.828299e+00 1.618521e+01 0.000000e+00 0.000000e+00 0.000000e+00 0.000000e+00
8.683152e+00 1.657693e+01 0.000000e+00 9.472530e+00 1.736630e+01 0.000000e+00 0.000000e+00 0.000000e+00 0.000000e+00
6.865702e+00 1.310725e+01 0.000000e+00 7.489856e+00 1.373140e+01 0.000000e+00 0.000000e+00 0.000000e+00 0.000000e+00
5.048854e+00 9.638720e+00 0.000000e+00 5.507840e+00 1.009771e+01 0.000000e+00 0.000000e+00 0.000000e+00 0.000000e+00
6.698231e+00 1.278753e+01 0.000000e+00 7.307161e+00 1.339646e+01 0.000000e+00 0.000000e+00 0.000000e+00 0.000000e+00
6.204262e+00 1.184450e+01 0.000000e+00 6.768286e+00 1.240852e+01 0.000000e+00 0.000000e+00 0.000000e+00 0.000000e+00
5.938957e+00 1.133801e+01 0.000000e+00 6.478863e+00 1.187791e+01 0.000000e+00 0.000000e+00 0.000000e+00 0.000000e+00
4.289580e+00 8.189199e+00 0.000000e+00 4.679542e+00 8.579161e+00 0.000000e+00 0.000000e+00 0.000000e+00 0.000000e+00
4.334791e+00 8.275510e+00 0.000000e+00 4.728863e+00 8.669581e+00 0.000000e+00 0.000000e+00 0.000000e+00 0.000000e+00
4.854443e+00 9.267573e+00 0.000000e+00 5.295756e+00 9.708886e+00 0.000000e+00 0.000000e+00 0.000000e+00 0.000000e+00
2.959791e+00 5.650510e+00 0.000000e+00 3.228863e+00 5.919581e+00 0.000000e+00 0.000000e+00 0.000000e+00 0.000000e+00
2.914580e+00 5.564199e+00 0.000000e+00 3.179542e+00 5.829161e+00 0.000000e+00 0.000000e+00 0.000000e+00 0.000000e+00
1.355624e+00 2.588010e+00 0.000000e+00 1.478863e+00 2.711248e+00 0.000000e+00 0.000000e+00 0.000000e+00 0.000000e+00
2.409998e+00 4.600906e+00 0.000000e+00 2.629089e+00 4.819997e+00 0.000000e+00 0.000000e+00 0.000000e+00 0.000000e+00
6.681241e-01 1.275510e+00 0.000000e+00 7.288626e-01 1.336248e+00 0.000000e+00 0.000000e+00 0.000000e+00 0.000000e+00
2.227080e+00 4.251699e+00 0.000000e+00 2.429542e+00 4.454161e+00 0.000000e+00 0.000000e+00 0.000000e+00 0.000000e+00
6.681241e-01 1.275510e+00 0.000000e+00 7.288626e-01 1.336248e+00 0.000000e+00 0.000000e+00 0.000000e+00 0.000000e+00
1.187776e+00 2.267573e+00 0.000000e+00 1.295756e+00 2.375552e+00 0.000000e+00 0.000000e+00 0.000000e+00 0.000000e+00
1.316682e+00 2.513666e+00 0.000000e+00 1.436381e+00 2.633364e+00 0.000000e+00 0.000000e+00 0.000000e+00 0.000000e+00
2.784774e+00 5.316387e+00 0.000000e+00 3.037935e+00 5.569548e+00 0.000000e+00 0.000000e+00 0.000000e+00 0.000000e+00
2.920849e+00 5.576166e+00 0.000000e+00 3.186381e+00 5.841698e+00 0.000000e+00 0.000000e+00 0.000000e+00 0.000000e+00
2.340768e+00 4.468740e+00 0.000000e+00 2.553566e+00 4.681537e+00 0.000000e+00 0.000000e+00 0.000000e+00 0.000000e+00
6.291822e-01 1.201166e+00 0.000000e+00 6.863806e-01 1.258364e+00 0.000000e+00 0.000000e+00 0.000000e+00 0.000000e+00
2.097274e+00 4.003887e+00 0.000000e+00 2.287935e+00 4.194548e+00 0.000000e+00 0.000000e+00 0.000000e+00 0.000000e+00
6.291822e-01 1.201166e+00 0.000000e+00 6.863806e-01 1.258364e+00 0.000000e+00 0.000000e+00 0.000000e+00 0.000000e+00
1.118546e+00 2.135406e+00 0.000000e+00 1.220232e+00 2.237092e+00 0.000000e+00 0.000000e+00 0.000000e+00 0.000000e+00
6.291822e-01 1.201166e+00 0.000000e+00 6.863806e-01 1.258364e+00 0.000000e+00 0.000000e+00 0.000000e+00 0.000000e+00
2.097274e+00 4.003887e+00 0.000000e+00 2.287935e+00 4.194548e+00 0.000000e+00 0.000000e+00 0.000000e+00 0.000000e+00
6.291822e-01 1.201166e+00 0.000000e+00 6.863806e-01 1.258364e+00 0.000000e+00 0.000000e+00 0.000000e+00 0.000000e+00
1.118546e+00 2.135406e+00 0.000000e+00 1.220232e+00 2.237092e+00 0.000000e+00 0.000000e+00 0.000000e+00 0.000000e+00
2.856263e+00 5.452865e+00 0.000000e+00 3.115923e+00 5.712525e+00 0.000000e+00 0.000000e+00 0.000000e+00 0.000000e+00
2.765398e+00 5.279397e+00 0.000000e+00 3.016798e+00 5.530797e+00 0.000000e+00 0.000000e+00 0.000000e+00 0.000000e+00
1.297306e+00 2.476676e+00 0.000000e+00 1.415243e+00 2.594613e+00 0.000000e+00 0.000000e+00 0.000000e+00 0.000000e+00
2.306322e+00 4.402979e+00 0.000000e+00 2.515988e+00 4.612645e+00 0.000000e+00 0.000000e+00 0.000000e+00 0.000000e+00
4.295849e+00 8.201166e+00 0.000000e+00 4.686380e+00 8.591698e+00 0.000000e+00 0.000000e+00 0.000000e+00 0.000000e+00
4.159774e+00 7.941387e+00 0.000000e+00 4.537935e+00 8.319549e+00 0.000000e+00 0.000000e+00 0.000000e+00 0.000000e+00
5.900016e+00 1.126367e+01 0.000000e+00 6.436380e+00 1.180003e+01 0.000000e+00 0.000000e+00 0.000000e+00 0.000000e+00
4.785213e+00 9.135406e+00 0.000000e+00 5.220232e+00 9.570426e+00 0.000000e+00 0.000000e+00 0.000000e+00 0.000000e+00
6.703245e+00 1.279710e+01 0.000000e+00 7.312631e+00 1.340649e+01 0.000000e+00 0.000000e+00 0.000000e+00 0.000000e+00
4.963003e+00 9.474825e+00 0.000000e+00 5.414186e+00 9.926006e+00 0.000000e+00 0.000000e+00 0.000000e+00 0.000000e+00
6.973280e+00 1.331262e+01 0.000000e+00 7.607214e+00 1.394656e+01 0.000000e+00 0.000000e+00 0.000000e+00 0.000000e+00
6.213176e+00 1.186152e+01 0.000000e+00 6.778010e+00 1.242635e+01 0.000000e+00 0.000000e+00 0.000000e+00 0.000000e+00
5.552872e+00 1.060094e+01 0.000000e+00 6.057678e+00 1.110574e+01 0.000000e+00 0.000000e+00 0.000000e+00 0.000000e+00
4.705246e+00 8.982742e+00 0.000000e+00 5.132996e+00 9.410492e+00 0.000000e+00 0.000000e+00 0.000000e+00 0.000000e+00
6.522094e+00 1.245127e+01 0.000000e+00 7.115011e+00 1.304419e+01 0.000000e+00 0.000000e+00 0.000000e+00 0.000000e+00
5.593404e+00 1.067832e+01 0.000000e+00 6.101895e+00 1.118681e+01 0.000000e+00 0.000000e+00 0.000000e+00 0.000000e+00
7.344699e+00 1.402170e+01 0.000000e+00 8.012399e+00 1.468940e+01 0.000000e+00 0.000000e+00 0.000000e+00 0.000000e+00
7.447263e+00 1.421750e+01 0.000000e+00 8.124287e+00 1.489453e+01 0.000000e+00 0.000000e+00 0.000000e+00 0.000000e+00
6.375477e+00 1.217136e+01 0.000000e+00 6.955066e+00 1.275095e+01 0.000000e+00 0.000000e+00 0.000000e+00 0.000000e+00
7.055813e+00 1.347019e+01 0.000000e+00 7.697250e+00 1.411163e+01 0.000000e+00 0.000000e+00 0.000000e+00 0.000000e+00
4.735281e+00 9.040081e+00 0.000000e+00 5.165761e+00 9.470561e+00 0.000000e+00 0.000000e+00 0.000000e+00 0.000000e+00
3.796791e+00 7.248418e+00 0.000000e+00 4.141953e+00 7.593581e+00 0.000000e+00 0.000000e+00 0.000000e+00 0.000000e+00
3.887655e+00 7.421886e+00 0.000000e+00 4.241078e+00 7.775310e+00 0.000000e+00 0.000000e+00 0.000000e+00 0.000000e+00
4.139909e+00 7.903462e+00 0.000000e+00 4.516264e+00 8.279818e+00 0.000000e+00 0.000000e+00 0.000000e+00 0.000000e+00
6.629672e+00 1.265665e+01 0.000000e+00 7.232369e+00 1.325934e+01 0.000000e+00 0.000000e+00 0.000000e+00 0.000000e+00
4.619396e+00 8.818847e+00 0.000000e+00 5.039340e+00 9.238791e+00 0.000000e+00 0.000000e+00 0.000000e+00 0.000000e+00
5.557886e+00 1.061051e+01 0.000000e+00 6.063148e+00 1.111577e+01 0.000000e+00 0.000000e+00 0.000000e+00 0.000000e+00
5.602318e+00 1.069533e+01 0.000000e+00 6.111619e+00 1.120464e+01 0.000000e+00 0.000000e+00 0.000000e+00 0.000000e+00
</DataArray>
<DataArray Name="data_vc" type="Float64" NumberOfComponents="3" format="ascii">
7.396875e-01 1.479375e+00 0.000000e+00
7.642361e-01 1.528472e+00 0.000000e+00
8.855208e-01 1.771042e+00 0.000000e+00
7.964815e-01 1.592963e+00 0.000000e+00
9.480208e-01 1.896042e+00 0.000000e+00
8.267361e-01 1.653472e+00 0.000000e+00
9.480208e-01 1.896042e+00 0.000000e+00
9.075926e-01 1.815185e+00 0.000000e+00
9.480208e-01 1.896042e+00 0.000000e+00
8.267361e-01 1.653472e+00 0.000000e+00
9.480208e-01 1.896042e+00 0.000000e+00
9.075926e-01 1.815185e+00 0.000000e+00
8.920457e-01 1.784091e+00 0.000000e+00
7.707610e-01 1.541522e+00 0.000000e+00
7.614369e-01 1.522874e+00 0.000000e+00
8.080812e-01 1.616162e+00 0.000000e+00
9.440249e-01 1.888050e+00 0.000000e+00
8.134161e-01 1.626832e+00 0.000000e+00
9.440249e-01 1.888050e+00 0.000000e+00
9.004886e-01 1.800977e+00 0.000000e+00
8.815248e-01 1.763050e+00 0.000000e+00
7.509161e-01 1.501832e+00 0.000000e+00
7.356915e-01 1.471383e+00 0.000000e+00
7.893775e-01 1.578755e+00 0.000000e+00
6.241547e-01 1.248309e+00 0.000000e+00
4.589867e-01 9.179733e-01 0.000000e+00
6.089301e-01 1.217860e+00 0.000000e+00
5.640238e-01 1.128048e+00 0.000000e+00
5.399052e-01 1.079810e+00 0.000000e+00
3.899618e-01 7.799237e-01 0.000000e+00
3.940719e-01 7.881438e-01 0.000000e+00
4.413130e-01 8.826260e-01 0.000000e+00
2.690719e-01 5.381438e-01 0.000000e+00