<?xml version="1.0"?>
<VTKFile type="UnstructuredGrid" version="0.1">
<UnstructuredGrid>
<FieldData>
<DataArray Name="TIME" type="Float64" format="ascii" NumberOfTuples="1">
0.000000e+00
</DataArray>
</FieldData>
<FieldData>
<DataArray Name="CYCLE" type="Int32" format="ascii" NumberOfTuples="1">
0
</DataArray>
</FieldData>
<Piece NumberOfPoints="53" NumberOfCells="20">
<Points>
<DataArray NumberOfComponents="3" type="Float64" format="ascii">
1.000000e+00 1.000000e+00 0.000000e+00
1.000000e+00 6.666667e-01 0.000000e+00
1.000000e+00 8.333333e-01 0.000000e+00
1.000000e+00 3.333333e-01 0.000000e+00
1.000000e+00 5.000000e-01 0.000000e+00
1.000000e+00 0.000000e+00 0.000000e+00
1.000000e+00 1.666667e-01 0.000000e+00
6.666667e-01 0.000000e+00 0.000000e+00
8.333333e-01 0.000000e+00 0.000000e+00
3.333333e-01 0.000000e+00 0.000000e+00
5.000000e-01 0.000000e+00 0.000000e+00
0.000000e+00 0.000000e+00 0.000000e+00
1.666667e-01 0.000000e+00 0.000000e+00
0.000000e+00 1.000000e+00 0.000000e+00
0.000000e+00 6.666667e-01 0.000000e+00
0.000000e+00 8.333333e-01 0.000000e+00
0.000000e+00 3.333333e-01 0.000000e+00
0.000000e+00 5.000000e-01 0.000000e+00
0.000000e+00 1.666667e-01 0.000000e+00
3.333333e-01 1.000000e+00 0.000000e+00
1.666667e-01 1.000000e+00 0.000000e+00
6.666667e-01 1.000000e+00 0.000000e+00
5.000000e-01 1.000000e+00 0.000000e+00
8.333333e-01 1.000000e+00 0.000000e+00
7.014658e-01 2.986558e-01 0.000000e+00
3.239390e-01 2.773111e-01 0.000000e+00
6.840662e-01 1.493279e-01 0.000000e+00
4.953028e-01 1.386555e-01 0.000000e+00
5.127023e-01 2.879834e-01 0.000000e+00
3.286361e-01 1.386555e-01 0.000000e+00
3.050581e-01 6.950284e-01 0.000000e+00
1.619695e-01 3.053222e-01 0.000000e+00
1.525290e-01 5.141808e-01 0.000000e+00
3.144985e-01 4.861697e-01 0.000000e+00
1.525290e-01 6.808475e-01 0.000000e+00
7.227778e-01 6.761019e-01 0.000000e+00
6.947222e-01 8.380510e-01 0.000000e+00
5.139179e-01 6.855651e-01 0.000000e+00
4.858623e-01 8.475142e-01 0.000000e+00
8.507329e-01 3.159946e-01 0.000000e+00
7.121218e-01 4.873788e-01 0.000000e+00
8.613889e-01 5.047176e-01 0.000000e+00
3.191957e-01 8.475142e-01 0.000000e+00
8.613889e-01 6.713843e-01 0.000000e+00
5.000690e-01 5.000334e-01 0.000000e+00
6.007674e-01 3.993446e-01 0.000000e+00
4.120040e-01 3.886723e-01 0.000000e+00
1.525290e-01 8.475142e-01 0.000000e+00
8.613889e-01 8.380510e-01 0.000000e+00
8.507329e-01 1.493279e-01 0.000000e+00
4.025635e-01 5.975309e-01 0.000000e+00
6.114234e-01 5.880677e-01 0.000000e+00
1.619695e-01 1.386555e-01 0.000000e+00
</DataArray>
</Points>
<Cells>
<DataArray Name="connectivity" type="Int32" format="ascii">
21 0 35
0 1 35
1 3 35
3 24 35
3 5 24
5 7 24
24 7 25
7 9 25
9 11 25
11 16 25
13 19 30
14 13 30
16 14 30
25 16 30
19 21 30
21 35 30
44 24 25
24 44 35
44 25 30
35 44 30
</DataArray>
<DataArray Name="offsets" type="Int32" format="ascii">
3
6
9
12
15
18
21
24
27
30
33
36
39
42
45
48
51
54
57
60
</DataArray>
<DataArray Name="types" type="UInt8" format="ascii">
5
5
5
5
5
5
5
5
5
5
5
5
5
5
5
5
5
5
5
5
</DataArray>
</Cells>
<PointData>
<DataArray Name="data" type="Float64" NumberOfComponents="9" format="ascii">
1.100000e+01 2.100000e+01 0.000000e+00 1.200000e+01 2.200000e+01 0.000000e+00 0.000000e+00 0.000000e+00 0.000000e+00
1.100000e+01 2.100000e+01 0.000000e+00 1.200000e+01 2.200000e+01 0.000000e+00 0.000000e+00 0.000000e+00 0.000000e+00
7.333333e+00 1.400000e+01 0.000000e+00 8.000000e+00 1.466667e+01 0.000000e+00 0.000000e+00 0.000000e+00 0.000000e+00
1.100000e+01 2.100000e+01 0.000000e+00 1.200000e+01 2.200000e+01 0.000000e+00 0.000000e+00 0.000000e+00 0.000000e+00
7.333333e+00 1.400000e+01 0.000000e+00 8.000000e+00 1.466667e+01 0.000000e+00 0.000000e+00 0.000000e+00 0.000000e+00
1.100000e+01 2.100000e+01 0.000000e+00 1.200000e+01 2.200000e+01 0.000000e+00 0.000000e+00 0.000000e+00 0.000000e+00
7.333333e+00 1.400000e+01 0.000000e+00 8.000000e+00 1.466667e+01 0.000000e+00 0.000000e+00 0.000000e+00 0.000000e+00
7.333333e+00 1.400000e+01 0.000000e+00 8.000000e+00 1.466667e+01 0.000000e+00 0.000000e+00 0.000000e+00 0.000000e+00
7.333333e+00 1.400000e+01 0.000000e+00 8.000000e+00 1.466667e+01 0.000000e+00 0.000000e+00 0.000000e+00 0.000000e+00
3.666667e+00 7.000000e+00 0.000000e+00 4.000000e+00 7.333333e+00 0.000000e+00 0.000000e+00 0.000000e+00 0.000000e+00
7.333333e+00 1.400000e+01 0.000000e+00 8.000000e+00 1.466667e+01 0.000000e+00 0.000000e+00 0.000000e+00 0.000000e+00
0.000000e+00 0.000000e+00 0.000000e+00 0.000000e+00 0.000000e+00 0.000000e+00 0.000000e+00 0.000000e+00 0.000000e+00
7.333333e+00 1.400000e+01 0.000000e+00 8.000000e+00 1.466667e+01 0.000000e+00 0.000000e+00 0.000000e+00 0.000000e+00
0.000000e+00 0.000000e+00 0.000000e+00 0.000000e+00 0.000000e+00 0.000000e+00 0.000000e+00 0.000000e+00 0.000000e+00
0.000000e+00 0.000000e+00 0.000000e+00 0.000000e+00 0.000000e+00 0.000000e+00 0.000000e+00 0.000000e+00 0.000000e+00
7.333333e+00 1.400000e+01 0.000000e+00 8.000000e+00 1.466667e+01 0.000000e+00 0.000000e+00 0.000000e+00 0.000000e+00
0.000000e+00 0.000000e+00 0.000000e+00 0.000000e+00 0.000000e+00 0.000000e+00 0.000000e+00 0.000000e+00 0.000000e+00
7.333333e+00 1.400000e+01 0.000000e+00 8.000000e+00 1.466667e+01 0.000000e+00 0.000000e+00 0.000000e+00 0.000000e+00
7.333333e+00 1.400000e+01 0.000000e+00 8.000000e+00 1.466667e+01 0.000000e+00 0.000000e+00 0.000000e+00 0.000000e+00
3.666667e+00 7.000000e+00 0.000000e+00 4.000000e+00 7.333333e+00 0.000000e+00 0.000000e+00 0.000000e+00 0.000000e+00
7.333333e+00 1.400000e+01 0.000000e+00 8.000000e+00 1.466667e+01 0.000000e+00 0.000000e+00 0.000000e+00 0.000000e+00
7.333333e+00 1.400000e+01 0.000000e+00 8.000000e+00 1.466667e+01 0.000000e+00 0.000000e+00 0.000000e+00 0.000000e+00
7.333333e+00 1.400000e+01 0.000000e+00 8.000000e+00 1.466667e+01 0.000000e+00 0.000000e+00 0.000000e+00 0.000000e+00
7.333333e+00 1.400000e+01 0.000000e+00 8.000000e+00 1.466667e+01 0.000000e+00 0.000000e+00 0.000000e+00 0.000000e+00
7.716124e+00 1.473078e+01 0.000000e+00 8.417589e+00 1.543225e+01 0.000000e+00 0.000000e+00 0.000000e+00 0.000000e+00
3.563329e+00 6.802718e+00 0.000000e+00 3.887268e+00 7.126657e+00 0.000000e+00 0.000000e+00 0.000000e+00 0.000000e+00
7.333333e+00 1.400000e+01 0.000000e+00 8.000000e+00 1.466667e+01 0.000000e+00 0.000000e+00 0.000000e+00 0.000000e+00
7.333333e+00 1.400000e+01 0.000000e+00 8.000000e+00 1.466667e+01 0.000000e+00 0.000000e+00 0.000000e+00 0.000000e+00
7.333333e+00 1.400000e+01 0.000000e+00 8.000000e+00 1.466667e+01 0.000000e+00 0.000000e+00 0.000000e+00 0.000000e+00
7.333333e+00 1.400000e+01 0.000000e+00 8.000000e+00 1.466667e+01 0.000000e+00 0.000000e+00 0.000000e+00 0.000000e+00
3.355639e+00 6.406219e+00 0.000000e+00 3.660697e+00 6.711277e+00 0.000000e+00 0.000000e+00 0.000000e+00 0.000000e+00
7.333333e+00 1.400000e+01 0.000000e+00 8.000000e+00 1.466667e+01 0.000000e+00 0.000000e+00 0.000000e+00 0.000000e+00
7.333333e+00 1.400000e+01 0.000000e+00 8.000000e+00 1.466667e+01 0.000000e+00 0.000000e+00 0.000000e+00 0.000000e+00
7.333333e+00 1.400000e+01 0.000000e+00 8.000000e+00 1.466667e+01 0.000000e+00 0.000000e+00 0.000000e+00 0.000000e+00
7.333333e+00 1.400000e+01 0.000000e+00 8.000000e+00 1.466667e+01 0.000000e+00 0.000000e+00 0.000000e+00 0.000000e+00
7.950556e+00 1.517833e+01 0.000000e+00 8.673333e+00 1.590111e+01 0.000000e+00 0.000000e+00 0.000000e+00 0.000000e+00
7.333333e+00 1.400000e+01 0.000000e+00 8.000000e+00 1.466667e+01 0.000000e+00 0.000000e+00 0.000000e+00 0.000000e+00
7.333333e+00 1.400000e+01 0.000000e+00 8.000000e+00 1.466667e+01 0.000000e+00 0.000000e+00 0.000000e+00 0.000000e+00
7.333333e+00 1.400000e+01 0.000000e+00 8.000000e+00 1.466667e+01 0.000000e+00 0.000000e+00 0.000000e+00 0.000000e+00
7.333333e+00 1.400000e+01 0.000000e+00 8.000000e+00 1.466667e+01 0.000000e+00 0.000000e+00 0.000000e+00 0.000000e+00
7.333333e+00 1.400000e+01 0.000000e+00 8.000000e+00 1.466667e+01 0.000000e+00 0.000000e+00 0.000000e+00 0.000000e+00
7.333333e+00 1.400000e+01 0.000000e+00 8.000000e+00 1.466667e+01 0.000000e+00 0.000000e+00 0.000000e+00 0.000000e+00
7.333333e+00 1.400000e+01 0.000000e+00 8.000000e+00 1.466667e+01 0.000000e+00 0.000000e+00 0.000000e+00 0.000000e+00
7.333333e+00 1.400000e+01 0.000000e+00 8.000000e+00 1.466667e+01 0.000000e+00 0.000000e+00 0.000000e+00 0.000000e+00
5.500759e+00 1.050145e+01 0.000000e+00 6.000828e+00 1.100152e+01 0.000000e+00 0.000000e+00 0.000000e+00 0.000000e+00
7.333333e+00 1.400000e+01 0.000000e+00 8.000000e+00 1.466667e+01 0.000000e+00 0.000000e+00 0.000000e+00 0.000000e+00
7.333333e+00 1.400000e+01 0.000000e+00 8.000000e+00 1.466667e+01 0.000000e+00 0.000000e+00 0.000000e+00 0.000000e+00
7.333333e+00 1.400000e+01 0.000000e+00 8.000000e+00 1.466667e+01 0.000000e+00 0.000000e+00 0.000000e+00 0.000000e+00
7.333333e+00 1.400000e+01 0.000000e+00 8.000000e+00 1.466667e+01 0.000000e+00 0.000000e+00 0.000000e+00 0.000000e+00
7.333333e+00 1.400000e+01 0.000000e+00 8.000000e+00 1.466667e+01 0.000000e+00 0.000000e+00 0.000000e+00 0.000000e+00
7.333333e+00 1.400000e+01 0.000000e+00 8.000000e+00 1.466667e+01 0.000000e+00 0.000000e+00 0.000000e+00 0.000000e+00
7.333333e+00 1.400000e+01 0.000000e+00 8.000000e+00 1.466667e+01 0.000000e+00 0.000000e+00 0.000000e+00 0.000000e+00
7.333333e+00 1.400000e+01 0.000000e+00 8.000000e+00 1.466667e+01 0.000000e+00 0.000000e+00 0.000000e+00 0.000000e+00
</DataArray>
</PointData>
</Piece>
</UnstructuredGrid>
</VTKFile>
