<?xml version="1.0"?>
<VTKFile type="UnstructuredGrid" version="0.1">
<UnstructuredGrid>
<Piece NumberOfPoints="17" NumberOfCells="20">
<Points>
<DataArray NumberOfComponents="3" type="Float64" format="ascii">
 1.000000e+00 1.000000e+00 0.000000e+00
 1.000000e+00 6.666667e-01 0.000000e+00
 1.000000e+00 3.333333e-01 0.000000e+00
 1.000000e+00 0.000000e+00 0.000000e+00
 6.666667e-01 0.000000e+00 0.000000e+00
 3.333333e-01 0.000000e+00 0.000000e+00
 0.000000e+00 0.000000e+00 0.000000e+00
 0.000000e+00 1.000000e+00 0.000000e+00
 0.000000e+00 6.666667e-01 0.000000e+00
 0.000000e+00 3.333333e-01 0.000000e+00
 3.333333e-01 1.000000e+00 0.000000e+00
 6.666667e-01 1.000000e+00 0.000000e+00
 7.014658e-01 2.986558e-01 0.000000e+00
 3.239390e-01 2.773111e-01 0.000000e+00
 3.050581e-01 6.950284e-01 0.000000e+00
 7.227778e-01 6.761019e-01 0.000000e+00
 5.000690e-01 5.000334e-01 0.000000e+00
</DataArray>
</Points>
<Cells>
<DataArray Name="connectivity" type="Int32" format="ascii">
11 0 15 
0 1 15 
1 2 15 
2 12 15 
2 3 12 
3 4 12 
12 4 13 
4 5 13 
5 6 13 
6 9 13 
7 10 14 
8 7 14 
9 8 14 
13 9 14 
10 11 14 
11 15 14 
16 12 13 
12 16 15 
16 13 14 
15 16 14 
</DataArray>
<DataArray Name="offsets" type="Int32" format="ascii">
3
6
9
12
15
18
21
24
27
30
33
36
39
42
45
48
51
54
57
60
</DataArray>
<DataArray Name="types" type="UInt8" format="ascii">
5
5
5
5
5
5
5
5
5
5
5
5
5
5
5
5
5
5
5
5
</DataArray>
</Cells>
<PointData Scalars="data_r">
<DataArray Name="data_r" type="Float64" NumberOfComponents="1" format="ascii">
 1.000000e+00
 1.000000e+00
 1.000000e+00
 1.000000e+00
 6.666667e-01
 3.333333e-01
 0.000000e+00
 0.000000e+00
 0.000000e+00
 0.000000e+00
 3.333333e-01
 6.666667e-01
 7.014658e-01
 3.239390e-01
 3.050581e-01
 7.227778e-01
 5.000690e-01
</DataArray>
<DataArray Name="data" type="Float64" NumberOfComponents="1" format="ascii">
 1.000000e+00
 1.000000e+00
 1.000000e+00
 1.000000e+00
 6.666667e-01
 3.333333e-01
 0.000000e+00
 0.000000e+00
 0.000000e+00
 0.000000e+00
 3.333333e-01
 6.666667e-01
 7.014658e-01
 3.239390e-01
 3.050581e-01
 7.227778e-01
 5.000690e-01
</DataArray>
<DataArray Name="data_n" type="Float64" NumberOfComponents="1" format="ascii">
 1.000000e+00
 1.000000e+00
 1.000000e+00
 1.000000e+00
 6.666667e-01
 3.333333e-01
 0.000000e+00
 0.000000e+00
 0.000000e+00
 0.000000e+00
 3.333333e-01
 6.666667e-01
 7.014658e-01
 3.239390e-01
 3.050581e-01
 7.227778e-01
 5.000690e-01
</DataArray>
</PointData>
</Piece>
</UnstructuredGrid>
</VTKFile>
