<?xml version="1.0"?>
<VTKFile type="UnstructuredGrid" version="0.1">
<UnstructuredGrid>
<FieldData>
<DataArray Name="TIME" type="Float64" format="ascii" NumberOfTuples="1">
0.000000e+00
</DataArray>
</FieldData>
<FieldData>
<DataArray Name="CYCLE" type="Int32" format="ascii" NumberOfTuples="1">
0
</DataArray>
</FieldData>
<Piece NumberOfPoints="22801" NumberOfCells="22500">
<Points>
<DataArray NumberOfComponents="3" type="Float64" format="ascii">
0.000000e+00 0.000000e+00 0.000000e+00
4.000000e+00 0.000000e+00 0.000000e+00
8.000000e+00 0.000000e+00 0.000000e+00
1.200000e+01 0.000000e+00 0.000000e+00
1.600000e+01 0.000000e+00 0.000000e+00
2.000000e+01 0.000000e+00 0.000000e+00
2.400000e+01 0.000000e+00 0.000000e+00
2.800000e+01 0.000000e+00 0.000000e+00
3.200000e+01 0.000000e+00 0.000000e+00
3.600000e+01 0.000000e+00 0.000000e+00
4.000000e+01 0.000000e+00 0.000000e+00
4.400000e+01 0.000000e+00 0.000000e+00
4.800000e+01 0.000000e+00 0.000000e+00
5.200000e+01 0.000000e+00 0.000000e+00
5.600000e+01 0.000000e+00 0.000000e+00
6.000000e+01 0.000000e+00 0.000000e+00
6.400000e+01 0.000000e+00 0.000000e+00
6.800000e+01 0.000000e+00 0.000000e+00
7.200000e+01 0.000000e+00 0.000000e+00
7.600000e+01 0.000000e+00 0.000000e+00
8.000000e+01 0.000000e+00 0.000000e+00
8.400000e+01 0.000000e+00 0.000000e+00
8.800000e+01 0.000000e+00 0.000000e+00
9.200000e+01 0.000000e+00 0.000000e+00
9.600000e+01 0.000000e+00 0.000000e+00
1.000000e+02 0.000000e+00 0.000000e+00
1.040000e+02 0.000000e+00 0.000000e+00
1.080000e+02 0.000000e+00 0.000000e+00
1.120000e+02 0.000000e+00 0.000000e+00
1.160000e+02 0.000000e+00 0.000000e+00
1.200000e+02 0.000000e+00 0.000000e+00
1.240000e+02 0.000000e+00 0.000000e+00
1.280000e+02 0.000000e+00 0.000000e+00
1.320000e+02 0.000000e+00 0.000000e+00
1.360000e+02 0.000000e+00 0.000000e+00
1.400000e+02 0.000000e+00 0.000000e+00
1.440000e+02 0.000000e+00 0.000000e+00
1.480000e+02 0.000000e+00 0.000000e+00
1.520000e+02 0.000000e+00 0.000000e+00
1.560000e+02 0.000000e+00 0.000000e+00
1.600000e+02 0.000000e+00 0.000000e+00
1.640000e+02 0.000000e+00 0.000000e+00
1.680000e+02 0.000000e+00 0.000000e+00
1.720000e+02 0.000000e+00 0.000000e+00
1.760000e+02 0.000000e+00 0.000000e+00
1.800000e+02 0.000000e+00 0.000000e+00
1.840000e+02 0.000000e+00 0.000000e+00
1.880000e+02 0.000000e+00 0.000000e+00
1.920000e+02 0.000000e+00 0.000000e+00
1.960000e+02 0.000000e+00 0.000000e+00
2.000000e+02 0.000000e+00 0.000000e+00
2.040000e+02 0.000000e+00 0.000000e+00
2.080000e+02 0.000000e+00 0.000000e+00
2.120000e+02 0.000000e+00 0.000000e+00
2.160000e+02 0.000000e+00 0.000000e+00
2.200000e+02 0.000000e+00 0.000000e+00
2.240000e+02 0.000000e+00 0.000000e+00
2.280000e+02 0.000000e+00 0.000000e+00
2.320000e+02 0.000000e+00 0.000000e+00
2.360000e+02 0.000000e+00 0.000000e+00
2.400000e+02 0.000000e+00 0.000000e+00
2.440000e+02 0.000000e+00 0.000000e+00
2.480000e+02 0.000000e+00 0.000000e+00
2.520000e+02 0.000000e+00 0.000000e+00
2.560000e+02 0.000000e+00 0.000000e+00
2.600000e+02 0.000000e+00 0.000000e+00
2.640000e+02 0.000000e+00 0.000000e+00
2.680000e+02 0.000000e+00 0.000000e+00
2.720000e+02 0.000000e+00 0.000000e+00
2.760000e+02 0.000000e+00 0.000000e+00
2.800000e+02 0.000000e+00 0.000000e+00
2.840000e+02 0.000000e+00 0.000000e+00
2.880000e+02 0.000000e+00 0.000000e+00
2.920000e+02 0.000000e+00 0.000000e+00
2.960000e+02 0.000000e+00 0.000000e+00
3.000000e+02 0.000000e+00 0.000000e+00
3.040000e+02 0.000000e+00 0.000000e+00
3.080000e+02 0.000000e+00 0.000000e+00
3.120000e+02 0.000000e+00 0.000000e+00
3.160000e+02 0.000000e+00 0.000000e+00
3.200000e+02 0.000000e+00 0.000000e+00
3.240000e+02 0.000000e+00 0.000000e+00
3.280000e+02 0.000000e+00 0.000000e+00
3.320000e+02 0.000000e+00 0.000000e+00
3.360000e+02 0.000000e+00 0.000000e+00
3.400000e+02 0.000000e+00 0.000000e+00
3.440000e+02 0.000000e+00 0.000000e+00
3.480000e+02 0.000000e+00 0.000000e+00
3.520000e+02 0.000000e+00 0.000000e+00
3.560000e+02 0.000000e+00 0.000000e+00
3.600000e+02 0.000000e+00 0.000000e+00
3.640000e+02 0.000000e+00 0.000000e+00
3.680000e+02 0.000000e+00 0.000000e+00
3.720000e+02 0.000000e+00 0.000000e+00
3.760000e+02 0.000000e+00 0.000000e+00
3.800000e+02 0.000000e+00 0.000000e+00
3.840000e+02 0.000000e+00 0.000000e+00
3.880000e+02 0.000000e+00 0.000000e+00
3.920000e+02 0.000000e+00 0.000000e+00
3.960000e+02 0.000000e+00 0.000000e+00
4.000000e+02 0.000000e+00 0.000000e+00
4.040000e+02 0.000000e+00 0.000000e+00
4.080000e+02 0.000000e+00 0.000000e+00
4.120000e+02 0.000000e+00 0.000000e+00
4.160000e+02 0.000000e+00 0.000000e+00
4.200000e+02 0.000000e+00 0.000000e+00
4.240000e+02 0.000000e+00 0.000000e+00
4.280000e+02 0.000000e+00 0.000000e+00
4.320000e+02 0.000000e+00 0.000000e+00
4.360000e+02 0.000000e+00 0.000000e+00
4.400000e+02 0.000000e+00 0.000000e+00
4.440000e+02 0.000000e+00 0.000000e+00
4.480000e+02 0.000000e+00 0.000000e+00
4.520000e+02 0.000000e+00 0.000000e+00
4.560000e+02 0.000000e+00 0.000000e+00
4.600000e+02 0.000000e+00 0.000000e+00
4.640000e+02 0.000000e+00 0.000000e+00
4.680000e+02 0.000000e+00 0.000000e+00
4.720000e+02 0.000000e+00 0.000000e+00
4.760000e+02 0.000000e+00 0.000000e+00
4.800000e+02 0.000000e+00 0.000000e+00
4.840000e+02 0.000000e+00 0.000000e+00
4.880000e+02 0.000000e+00 0.000000e+00
4.920000e+02 0.000000e+00 0.000000e+00
4.960000e+02 0.000000e+00 0.000000e+00
5.000000e+02 0.000000e+00 0.000000e+00
5.040000e+02 0.000000e+00 0.000000e+00
5.080000e+02 0.000000e+00 0.000000e+00
5.120000e+02 0.000000e+00 0.000000e+00
5.160000e+02 0.000000e+00 0.000000e+00
5.200000e+02 0.000000e+00 0.000000e+00
5.240000e+02 0.000000e+00 0.000000e+00
5.280000e+02 0.000000e+00 0.000000e+00
5.320000e+02 0.000000e+00 0.000000e+00
5.360000e+02 0.000000e+00 0.000000e+00
5.400000e+02 0.000000e+00 0.000000e+00
5.440000e+02 0.000000e+00 0.000000e+00
5.480000e+02 0.000000e+00 0.000000e+00
5.520000e+02 0.000000e+00 0.000000e+00
5.560000e+02 0.000000e+00 0.000000e+00
5.600000e+02 0.000000e+00 0.000000e+00
5.640000e+02 0.000000e+00 0.000000e+00
5.680000e+02 0.000000e+00 0.000000e+00
5.720000e+02 0.000000e+00 0.000000e+00
5.760000e+02 0.000000e+00 0.000000e+00
5.800000e+02 0.000000e+00 0.000000e+00
5.840000e+02 0.000000e+00 0.000000e+00
5.880000e+02 0.000000e+00 0.000000e+00
5.920000e+02 0.000000e+00 0.000000e+00
5.960000e+02 0.000000e+00 0.000000e+00
6.000000e+02 0.000000e+00 0.000000e+00
0.000000e+00 4.000000e+00 0.000000e+00
4.000000e+00 4.000000e+00 0.000000e+00
8.000000e+00 4.000000e+00 0.000000e+00
1.200000e+01 4.000000e+00 0.000000e+00
1.600000e+01 4.000000e+00 0.000000e+00
2.000000e+01 4.000000e+00 0.000000e+00
2.400000e+01 4.000000e+00 0.000000e+00
2.800000e+01 4.000000e+00 0.000000e+00
3.200000e+01 4.000000e+00 0.000000e+00
3.600000e+01 4.000000e+00 0.000000e+00
4.000000e+01 4.000000e+00 0.000000e+00
4.400000e+01 4.000000e+00 0.000000e+00
4.800000e+01 4.000000e+00 0.000000e+00
5.200000e+01 4.000000e+00 0.000000e+00
5.600000e+01 4.000000e+00 0.000000e+00
6.000000e+01 4.000000e+00 0.000000e+00
6.400000e+01 4.000000e+00 0.000000e+00
6.800000e+01 4.000000e+00 0.000000e+00
7.200000e+01 4.000000e+00 0.000000e+00
7.600000e+01 4.000000e+00 0.000000e+00
8.000000e+01 4.000000e+00 0.000000e+00
8.400000e+01 4.000000e+00 0.000000e+00
8.800000e+01 4.000000e+00 0.000000e+00
9.200000e+01 4.000000e+00 0.000000e+00
9.600000e+01 4.000000e+00 0.000000e+00
1.000000e+02 4.000000e+00 0.000000e+00
1.040000e+02 4.000000e+00 0.000000e+00
1.080000e+02 4.000000e+00 0.000000e+00
1.120000e+02 4.000000e+00 0.000000e+00
1.160000e+02 4.000000e+00 0.000000e+00
1.200000e+02 4.000000e+00 0.000000e+00
1.240000e+02 4.000000e+00 0.000000e+00
1.280000e+02 4.000000e+00 0.000000e+00
1.320000e+02 4.000000e+00 0.000000e+00
1.360000e+02 4.000000e+00 0.000000e+00
1.400000e+02 4.000000e+00 0.000000e+00
1.440000e+02 4.000000e+00 0.000000e+00
1.480000e+02 4.000000e+00 0.000000e+00
1.520000e+02 4.000000e+00 0.000000e+00
1.560000e+02 4.000000e+00 0.000000e+00
1.600000e+02 4.000000e+00 0.000000e+00
1.640000e+02 4.000000e+00 0.000000e+00
1.680000e+02 4.000000e+00 0.000000e+00
1.720000e+02 4.000000e+00 0.000000e+00
1.760000e+02 4.000000e+00 0.000000e+00
1.800000e+02 4.000000e+00 0.000000e+00
1.840000e+02 4.000000e+00 0.000000e+00
1.880000e+02 4.000000e+00 0.000000e+00
1.920000e+02 4.000000e+00 0.000000e+00
1.960000e+02 4.000000e+00 0.000000e+00
2.000000e+02 4.000000e+00 0.000000e+00
2.040000e+02 4.000000e+00 0.000000e+00
2.080000e+02 4.000000e+00 0.000000e+00
2.120000e+02 4.000000e+00 0.000000e+00
2.160000e+02 4.000000e+00 0.000000e+00
2.200000e+02 4.000000e+00 0.000000e+00
2.240000e+02 4.000000e+00 0.000000e+00
2.280000e+02 4.000000e+00 0.000000e+00
2.320000e+02 4.000000e+00 0.000000e+00
2.360000e+02 4.000000e+00 0.000000e+00
2.400000e+02 4.000000e+00 0.000000e+00
2.440000e+02 4.000000e+00 0.000000e+00
2.480000e+02 4.000000e+00 0.000000e+00
2.520000e+02 4.000000e+00 0.000000e+00
2.560000e+02 4.000000e+00 0.000000e+00
2.600000e+02 4.000000e+00 0.000000e+00
2.640000e+02 4.000000e+00 0.000000e+00
2.680000e+02 4.000000e+00 0.000000e+00
2.720000e+02 4.000000e+00 0.000000e+00
2.760000e+02 4.000000e+00 0.000000e+00
2.800000e+02 4.000000e+00 0.000000e+00
2.840000e+02 4.000000e+00 0.000000e+00
2.880000e+02 4.000000e+00 0.000000e+00
2.920000e+02 4.000000e+00 0.000000e+00
2.960000e+02 4.000000e+00 0.000000e+00
3.000000e+02 4.000000e+00 0.000000e+00
3.040000e+02 4.000000e+00 0.000000e+00
3.080000e+02 4.000000e+00 0.000000e+00
3.120000e+02 4.000000e+00 0.000000e+00
3.160000e+02 4.000000e+00 0.000000e+00
3.200000e+02 4.000000e+00 0.000000e+00
3.240000e+02 4.000000e+00 0.000000e+00
3.280000e+02 4.000000e+00 0.000000e+00
3.320000e+02 4.000000e+00 0.000000e+00
3.360000e+02 4.000000e+00 0.000000e+00
3.400000e+02 4.000000e+00 0.000000e+00
3.440000e+02 4.000000e+00 0.000000e+00
3.480000e+02 4.000000e+00 0.000000e+00
3.520000e+02 4.000000e+00 0.000000e+00
3.560000e+02 4.000000e+00 0.000000e+00
3.600000e+02 4.000000e+00 0.000000e+00
3.640000e+02 4.000000e+00 0.000000e+00
3.680000e+02 4.000000e+00 0.000000e+00
[...]
<PointData>
<DataArray Name="T" type="Float64" NumberOfComponents="1" format="ascii">
9.776644e+02
9.787550e+02
9.820250e+02
9.874690e+02
9.950775e+02
1.004837e+03
1.016730e+03
1.030735e+03
1.046824e+03
1.064966e+03
1.085122e+03
1.107250e+03
1.131298e+03
1.157211e+03
1.184925e+03
1.214370e+03
1.245467e+03
1.278132e+03
1.312272e+03
1.347789e+03
1.384575e+03
1.422518e+03
1.461499e+03
1.501390e+03
1.542053e+03
1.583339e+03
1.619424e+03
1.655825e+03
1.692401e+03
1.729017e+03
1.765549e+03
1.801877e+03
1.837885e+03
1.873464e+03
1.908508e+03
1.942918e+03
1.976601e+03
2.009470e+03
2.041447e+03
2.072461e+03
2.102451e+03
2.131363e+03
2.159153e+03
2.185785e+03
2.211231e+03
2.235473e+03
2.258500e+03
2.280310e+03
2.300906e+03
2.320300e+03
2.338509e+03
2.355556e+03
2.371468e+03
2.386279e+03
2.400023e+03
2.412740e+03
2.424470e+03
2.435257e+03
2.445145e+03
2.454177e+03
2.462399e+03
2.469854e+03
2.476585e+03
2.482635e+03
2.488042e+03
2.492845e+03
2.497079e+03
2.500776e+03
2.503967e+03
2.506677e+03
2.508931e+03
2.510748e+03
2.512145e+03
2.513135e+03
2.513728e+03
2.513928e+03
2.513738e+03
2.513156e+03
2.512176e+03
2.510790e+03
2.508984e+03
2.506743e+03
2.504046e+03
2.500869e+03
2.497187e+03
2.492970e+03
2.488185e+03
2.482796e+03
2.476768e+03
2.470058e+03
2.462627e+03
2.454431e+03
2.445427e+03
2.435569e+03
2.424814e+03
2.413117e+03
2.400435e+03
2.386728e+03
2.371957e+03
2.356084e+03
2.339080e+03
2.320914e+03
2.301565e+03
2.281014e+03
2.259251e+03
2.236271e+03
2.212075e+03
2.186676e+03
2.160091e+03
2.132347e+03
2.103479e+03
2.073533e+03
2.042560e+03
2.010622e+03
1.977791e+03
1.944142e+03
1.909764e+03
1.874747e+03
1.839193e+03
1.803205e+03
1.766895e+03
1.730376e+03
1.693768e+03
1.657197e+03
1.620797e+03
1.584708e+03
1.543414e+03
1.502740e+03
1.462834e+03
1.423835e+03
1.385870e+03
1.349060e+03
1.313517e+03
1.279349e+03
1.246655e+03
1.215527e+03
1.186052e+03
1.158306e+03
1.132362e+03
1.108284e+03
1.086127e+03
1.065943e+03
1.047775e+03
1.031662e+03
1.017636e+03
1.005725e+03
9.959495e+02
9.883288e+02
9.828760e+02
9.796006e+02
9.785081e+02
9.774985e+02
9.785886e+02
9.818568e+02
9.872979e+02
9.949023e+02
1.004657e+03
1.016544e+03
1.030541e+03
1.046622e+03
1.064755e+03
1.084901e+03
1.107017e+03
1.131054e+03
1.156955e+03
1.184656e+03
1.214087e+03
1.245171e+03
1.277822e+03
1.311948e+03
1.347451e+03
1.384223e+03
1.422153e+03
1.461122e+03
1.501003e+03
1.541662e+03
1.582948e+03
1.619036e+03
1.655438e+03
1.692011e+03
1.728622e+03
1.765148e+03
1.801469e+03
1.837472e+03
1.873047e+03
1.908089e+03
1.942497e+03
1.976179e+03
2.009048e+03
2.041026e+03
2.072042e+03
2.102035e+03
2.130951e+03
2.158745e+03
2.185382e+03
2.210835e+03
2.235083e+03
2.258118e+03
2.279936e+03
2.300540e+03
2.319942e+03
2.338160e+03
2.355216e+03
2.371137e+03
2.385957e+03
2.399711e+03
2.412437e+03
2.424176e+03
2.434972e+03
2.444868e+03
2.453909e+03
2.462139e+03
2.469602e+03
2.476341e+03
2.482397e+03
2.487811e+03
2.492620e+03
2.496859e+03
2.500562e+03
2.503756e+03
2.506471e+03
2.508728e+03
2.510548e+03
2.511947e+03
2.512938e+03
2.513532e+03
2.513732e+03
2.513542e+03
2.512959e+03
2.511978e+03
2.510590e+03
2.508781e+03
2.506537e+03
2.503835e+03
2.500655e+03
2.496967e+03
2.492745e+03
2.487953e+03
2.482559e+03
2.476523e+03
2.469806e+03
2.462367e+03
2.454164e+03
2.445150e+03
2.435284e+03
2.424520e+03
2.412813e+03
2.400123e+03
2.386406e+03
2.371625e+03
2.355744e+03
2.338730e+03
2.320556e+03
2.301198e+03
2.280639e+03
2.258868e+03
2.235881e+03
2.211679e+03
2.186273e+03
2.159683e+03
2.131934e+03
2.103063e+03
2.073113e+03
2.042138e+03
2.010200e+03
1.977368e+03
1.943720e+03
1.909344e+03
1.874330e+03
1.838780e+03
1.802797e+03
1.766493e+03
1.729980e+03
1.693378e+03
1.656809e+03
1.620408e+03
1.584317e+03
1.543022e+03
1.502352e+03
1.462456e+03
1.423469e+03
1.385517e+03
1.348721e+03
1.313193e+03
1.279038e+03
1.246358e+03
1.215244e+03
1.185782e+03
1.158049e+03
1.132118e+03
1.108051e+03
1.085905e+03
1.065731e+03
1.047573e+03
1.031468e+03
1.017449e+03
1.005544e+03
9.957739e+02
9.881572e+02
9.827073e+02
9.794336e+02
9.783418e+02
9.770015e+02
9.780898e+02
9.813528e+02
9.867852e+02
9.943774e+02
1.004116e+03
1.015984e+03
1.029960e+03
1.046016e+03
1.064121e+03
1.084237e+03
1.106321e+03
1.130323e+03
1.156187e+03
1.183849e+03
1.213241e+03
1.244284e+03
1.276893e+03
1.310977e+03
1.346437e+03
1.383168e+03
1.421057e+03
1.459987e+03
1.499839e+03
1.540483e+03
1.581775e+03
1.617874e+03
1.654281e+03
1.690846e+03
1.727439e+03
1.763944e+03
1.800247e+03
1.836235e+03
1.871798e+03
1.906831e+03
1.941233e+03
1.974912e+03
2.007782e+03
2.039763e+03
2.070785e+03
2.100787e+03
2.129714e+03
2.157522e+03
2.184175e+03
2.209645e+03
2.233914e+03
2.256970e+03
2.278811e+03
2.299440e+03
2.318868e+03
2.337112e+03
2.354195e+03
2.370144e+03
2.384991e+03
2.398772e+03
2.411526e+03
2.423293e+03
2.434116e+03
2.444038e+03
2.453104e+03
2.461358e+03
2.468844e+03
2.475606e+03
2.481683e+03
2.487116e+03
2.491943e+03
2.496199e+03
2.499916e+03
2.503124e+03
2.505850e+03
2.508117e+03
2.509945e+03
2.511351e+03
2.512347e+03
2.512943e+03
2.513144e+03
2.512953e+03
2.512367e+03
2.511382e+03
2.509987e+03
2.508171e+03
2.505916e+03
2.503203e+03
2.500009e+03
2.496307e+03
2.492067e+03
2.487258e+03
2.481844e+03
2.475787e+03
2.469049e+03
2.461586e+03
2.453358e+03
2.444320e+03
2.434427e+03
2.423636e+03
2.411902e+03
2.399184e+03
2.385440e+03
2.370631e+03
2.354722e+03
2.337681e+03
2.319480e+03
2.300097e+03
2.279514e+03
2.257719e+03
2.234710e+03
2.210488e+03
2.185064e+03
2.158458e+03
2.130695e+03
2.101812e+03
2.071854e+03
2.040873e+03
2.008932e+03
1.976099e+03
1.942454e+03
1.908083e+03
1.873079e+03
1.837540e+03
1.801573e+03
1.765287e+03
1.728795e+03
1.692210e+03
1.655650e+03
1.619244e+03
1.583141e+03
1.541842e+03
1.501185e+03
1.461319e+03
1.422370e+03
1.384460e+03
1.347706e+03
1.312220e+03
1.278108e+03
1.245469e+03
1.214396e+03
1.184973e+03
1.157279e+03
1.131385e+03
1.107352e+03
1.085239e+03
1.065096e+03
1.046965e+03
1.030885e+03
1.016888e+03
1.005002e+03
9.952474e+02
9.876429e+02
9.822018e+02
9.789334e+02
9.778433e+02
9.761754e+02
9.772607e+02
9.805150e+02
9.859327e+02
9.935046e+02
1.003218e+03
1.015055e+03
1.028994e+03
1.045009e+03
1.063067e+03
1.083133e+03
1.105162e+03
1.129106e+03
1.154909e+03
1.182508e+03
1.211833e+03
1.242808e+03
1.275348e+03
1.309362e+03
1.344751e+03
1.381412e+03
1.419231e+03
1.458094e+03
1.497882e+03
1.538495e+03
1.579811e+03
1.615953e+03
1.652380e+03
1.688920e+03
1.725471e+03
1.761939e+03
1.798211e+03
1.834174e+03
1.869717e+03
1.904734e+03
1.939127e+03
1.972802e+03
2.005671e+03
2.037657e+03
2.068689e+03
2.098705e+03
2.127651e+03
2.155481e+03
2.182160e+03
2.207661e+03
2.231962e+03
2.255055e+03
2.276933e+03
2.297603e+03
2.317073e+03
2.335361e+03
2.352489e+03
2.368483e+03
2.383377e+03
2.397204e+03
2.410004e+03
2.421816e+03
2.432683e+03
2.442649e+03
2.451757e+03
2.460052e+03
2.467577e+03
2.474375e+03
2.480487e+03
2.485952e+03
2.490809e+03
2.495092e+03
2.498834e+03
2.502064e+03
2.504810e+03
2.507093e+03
2.508934e+03
2.510351e+03
2.511354e+03
2.511955e+03
2.512157e+03
2.511965e+03
2.511375e+03
2.510381e+03
2.508976e+03
2.507146e+03
2.504875e+03
2.502143e+03
2.498927e+03
2.495200e+03
2.490933e+03
2.486094e+03
2.480647e+03
2.474556e+03
2.467780e+03
2.460279e+03
2.452010e+03
2.442930e+03
2.432993e+03
2.422158e+03
2.410379e+03
2.397615e+03
2.383824e+03
2.368969e+03
2.353015e+03
2.335929e+03
2.317684e+03
2.298258e+03
2.277634e+03
2.255802e+03
2.232756e+03
2.208501e+03
2.183047e+03
2.156414e+03
2.128629e+03
2.099728e+03
2.069755e+03
2.038765e+03
2.006818e+03
1.973985e+03
1.940345e+03
1.905983e+03
1.870994e+03
1.835475e+03
1.799533e+03
1.763278e+03
1.726822e+03
1.690280e+03
1.653746e+03
1.617319e+03
1.581174e+03
1.539850e+03
1.499224e+03
1.459421e+03
1.420540e+03
1.382700e+03
1.346016e+03
1.310600e+03
1.276559e+03
1.243990e+03
1.212985e+03
1.183629e+03
1.155999e+03
1.130165e+03
1.106191e+03
1.084132e+03
1.064039e+03
1.045955e+03
1.029916e+03
1.015956e+03
1.004101e+03
9.943721e+02
9.867880e+02
9.813614e+02
9.781018e+02
9.770147e+02
9.750233e+02
9.761045e+02
9.793464e+02
9.847438e+02
9.922874e+02
1.001964e+03
1.013758e+03
1.027646e+03
1.043603e+03
1.061597e+03
1.081593e+03
1.103546e+03
1.127409e+03
1.153126e+03
1.180635e+03
1.209868e+03
1.240747e+03
1.273190e+03
1.307106e+03
1.342397e+03
1.378958e+03
1.416680e+03
1.455444e+03
1.495131e+03
1.535618e+03
1.576989e+03
1.613362e+03
1.649801e+03
1.686234e+03
1.722718e+03
1.759133e+03
1.795361e+03
1.831289e+03
1.866803e+03
1.901800e+03
1.936179e+03
1.969846e+03
2.002716e+03
2.034708e+03
2.065753e+03
2.095788e+03
2.124759e+03
2.152621e+03
2.179336e+03
2.204878e+03
2.229225e+03
2.252367e+03
2.274299e+03
2.295024e+03
2.314553e+03
2.332902e+03
2.350092e+03
2.366150e+03
2.381108e+03
2.394999e+03
2.407863e+03
2.419738e+03
2.430667e+03
2.440693e+03
2.449860e+03
2.458211e+03
2.465790e+03
2.472639e+03
2.478800e+03
2.484311e+03
2.489209e+03
2.493531e+03
2.497307e+03
2.500568e+03
2.503340e+03
2.505646e+03
2.507507e+03
2.508938e+03
2.509952e+03
2.510558e+03
2.510763e+03
2.510568e+03
2.509972e+03
2.508968e+03
2.507548e+03
2.505699e+03
2.503405e+03
2.500646e+03
2.497399e+03
2.493638e+03
2.489333e+03
2.484451e+03
2.478960e+03
2.472820e+03
2.465993e+03
2.458438e+03
2.450112e+03
2.440973e+03
2.430976e+03
2.420078e+03
2.408236e+03
2.395408e+03
2.381553e+03
2.366634e+03
2.350616e+03
2.333468e+03
2.315162e+03
2.295677e+03
2.274997e+03
2.253111e+03
2.230015e+03
2.205714e+03
2.180219e+03
2.153550e+03
2.125734e+03
2.096807e+03
2.066815e+03
2.035811e+03
2.003858e+03
1.971025e+03
1.937392e+03
1.903044e+03
1.868075e+03
1.832584e+03
1.796678e+03
1.760466e+03
1.724064e+03
1.687589e+03
1.651161e+03
1.614722e+03
1.578346e+03
1.536967e+03
1.496468e+03
1.456766e+03
1.417983e+03
1.380241e+03
1.343656e+03
1.308339e+03
1.274396e+03
1.241924e+03
1.211015e+03
1.181751e+03
1.154211e+03
1.128463e+03
1.104570e+03
1.082588e+03
1.062565e+03
1.044545e+03
1.028564e+03
1.014655e+03
1.002844e+03
9.931512e+02
9.855955e+02
9.801893e+02
9.769420e+02
9.758590e+02
9.735494e+02
9.746254e+02
9.778516e+02
9.832228e+02
9.907302e+02
1.000361e+03
1.012098e+03
1.025921e+03
1.041804e+03
1.059716e+03
1.079621e+03
1.101477e+03
1.125235e+03
1.150843e+03
1.178237e+03
1.207350e+03
1.238107e+03
1.270425e+03
1.304215e+03
1.339379e+03
1.375814e+03
1.413409e+03
1.452047e+03
1.491601e+03
1.531931e+03
1.572700e+03
1.610570e+03
1.646464e+03
1.682778e+03
1.719177e+03
1.755525e+03
1.791699e+03
1.827581e+03
1.863060e+03
1.898029e+03
1.932389e+03
1.966046e+03
1.998914e+03
2.030915e+03
2.061975e+03
2.092034e+03
2.121037e+03
2.148937e+03
2.175698e+03
2.201292e+03
2.225697e+03
2.248901e+03
2.270901e+03
2.291698e+03
2.311301e+03
2.329727e+03
2.346997e+03
2.363136e+03
2.378175e+03
2.392148e+03
2.405093e+03
2.417049e+03
2.428057e+03
2.438160e+03
2.447402e+03
2.455825e+03
2.463473e+03
2.470388e+03
2.476610e+03
2.482179e+03
2.487131e+03
2.491501e+03
2.495322e+03
2.498623e+03
2.501429e+03
2.503765e+03
2.505649e+03
2.507099e+03
2.508126e+03
2.508741e+03
2.508949e+03
2.508751e+03
2.508146e+03
2.507129e+03
2.505690e+03
2.503817e+03
2.501494e+03
2.498700e+03
2.495414e+03
2.491608e+03
2.487254e+03
2.482319e+03
2.476769e+03
2.470568e+03
2.463675e+03
2.456051e+03
2.447653e+03
2.438438e+03
2.428364e+03
2.417387e+03
2.405464e+03
2.392554e+03
2.378618e+03
2.363617e+03
2.347518e+03
2.330290e+03
2.311907e+03
2.292347e+03
2.271595e+03
2.249641e+03
2.226483e+03
2.202124e+03
2.176577e+03
2.149861e+03
2.122006e+03
2.093048e+03
2.063031e+03
2.032012e+03
2.000050e+03
1.967219e+03
1.933595e+03
1.899266e+03
1.864324e+03
1.828870e+03
1.793009e+03
1.756851e+03
1.720515e+03
1.684125e+03
1.647817e+03
1.611923e+03
1.574049e+03
1.533272e+03
1.492931e+03
1.453362e+03
1.414706e+03
1.377089e+03
1.340631e+03
1.305441e+03
1.271625e+03
1.239278e+03
1.208491e+03
1.179347e+03
1.151922e+03
1.126284e+03
1.102495e+03
1.080611e+03
1.060678e+03
1.042741e+03
1.026835e+03
1.012991e+03
1.001235e+03
9.915892e+02
9.840699e+02
9.786899e+02
9.754584e+02
9.743807e+02
9.717596e+02
9.728292e+02
9.760363e+02
9.813756e+02
9.888386e+02
9.984129e+02
1.010082e+03
1.023825e+03
1.039618e+03
1.057429e+03
1.077224e+03
1.098961e+03
1.122593e+03
1.148066e+03
1.175320e+03
1.204288e+03
1.234895e+03
1.267061e+03
1.300696e+03
1.335705e+03
1.371985e+03
1.409428e+03
1.447917e+03
1.487325e+03
1.527490e+03
1.568221e+03
1.606398e+03
1.642327e+03
1.678529e+03
1.714844e+03
1.751118e+03
1.787227e+03
1.823053e+03
1.858487e+03
1.893422e+03
1.927758e+03
1.961402e+03
1.994267e+03
2.026275e+03
2.057354e+03
2.087440e+03
2.116480e+03
2.144426e+03
2.171242e+03
2.196897e+03
2.221371e+03
2.244651e+03
2.266732e+03
2.287614e+03
2.307308e+03
2.325827e+03
2.343192e+03
2.359429e+03
2.374567e+03
2.388639e+03
2.401682e+03
2.413735e+03
2.424839e+03
2.435036e+03
2.444369e+03
2.452880e+03
2.460612e+03
2.467606e+03
2.473903e+03
2.479542e+03
2.484559e+03
2.488989e+03
2.492864e+03
2.496212e+03
2.499060e+03
2.501431e+03
2.503345e+03
2.504817e+03
2.505861e+03
2.506486e+03
2.506697e+03
2.506496e+03
2.505881e+03
2.504848e+03
2.503386e+03
2.501484e+03
2.499125e+03
2.496289e+03
2.492955e+03
2.489095e+03
2.484681e+03
2.479681e+03
2.474061e+03
2.467784e+03
2.460812e+03
2.453104e+03
2.444618e+03
2.435313e+03
2.425145e+03
2.414072e+03
2.402051e+03
2.389042e+03
2.375007e+03
2.359907e+03
2.343710e+03
2.326386e+03
2.307909e+03
2.288259e+03
2.267421e+03
2.245386e+03
2.222152e+03
2.197724e+03
2.172114e+03
2.145344e+03
2.117443e+03
2.088447e+03
2.058403e+03
2.027365e+03
1.995396e+03
1.962566e+03
1.928956e+03
1.894650e+03
1.859743e+03
1.824334e+03
1.788527e+03
1.752435e+03
1.716174e+03
1.679868e+03
1.643670e+03
1.607742e+03
1.569561e+03
1.528822e+03
1.488646e+03
1.449223e+03
1.410716e+03
1.373252e+03
1.336949e+03
1.301914e+03
1.268252e+03
1.236058e+03
1.205421e+03
1.176422e+03
1.149138e+03
1.123634e+03
1.099973e+03
1.078207e+03
1.058385e+03
1.040548e+03
1.024733e+03
1.010969e+03
9.992814e+02
9.896920e+02
9.822170e+02
9.768689e+02
9.736566e+02
9.725852e+02
9.696605e+02
9.707225e+02
9.739070e+02
9.792090e+02
9.866199e+02
9.961277e+02
1.007716e+03
1.021366e+03
1.037052e+03
1.054745e+03
1.074410e+03
1.096006e+03
1.119489e+03
1.144804e+03
1.171892e+03
1.200689e+03
1.231120e+03
1.263105e+03
1.296557e+03
1.331383e+03
1.367481e+03
1.404744e+03
1.443060e+03
1.482309e+03
1.522379e+03
1.563123e+03
1.601372e+03
1.637336e+03
1.673496e+03
1.709724e+03
1.745914e+03
1.781947e+03
1.817708e+03
1.853088e+03
1.887980e+03
1.922286e+03
1.955913e+03
1.988773e+03
2.020788e+03
2.051886e+03
2.082003e+03
2.111084e+03
2.139083e+03
2.165960e+03
2.191687e+03
2.216241e+03
2.239608e+03
2.261782e+03
2.282764e+03
2.302562e+03
2.321190e+03
2.338667e+03
2.355017e+03
2.370270e+03
2.384457e+03
2.397615e+03
2.409782e+03
2.420999e+03
2.431305e+03
2.440744e+03
2.449357e+03
2.457187e+03
2.464275e+03
2.470660e+03
2.476381e+03
2.481474e+03
2.485974e+03
2.489912e+03
2.493316e+03
2.496214e+03
2.498626e+03
2.500575e+03
2.502074e+03
2.503137e+03
2.503773e+03
2.503988e+03
2.503783e+03
2.503157e+03
2.502104e+03
2.500615e+03
2.498679e+03
2.496278e+03
2.493393e+03
2.490002e+03
2.486079e+03
2.481595e+03
2.476519e+03
2.470817e+03
2.464452e+03
2.457386e+03
2.449580e+03
2.440991e+03
2.431579e+03
2.421302e+03
2.410116e+03
2.397981e+03
2.384858e+03
2.370706e+03
2.355491e+03
2.339180e+03
2.321744e+03
2.303159e+03
2.283404e+03
2.262466e+03
2.240337e+03
2.217015e+03
2.192507e+03
2.166826e+03
2.139994e+03
2.112040e+03
2.083002e+03
2.052927e+03
2.021869e+03
1.989893e+03
1.957068e+03
1.923475e+03
1.889199e+03
1.854334e+03
1.818979e+03
1.783238e+03
1.747221e+03
1.711044e+03
1.674824e+03
1.638669e+03
1.602705e+03
1.564453e+03
1.523700e+03
1.483619e+03
1.444355e+03
1.406022e+03
1.368738e+03
1.332617e+03
1.297766e+03
1.264286e+03
1.232273e+03
1.201812e+03
1.172986e+03
1.145867e+03
1.120522e+03
1.097010e+03
1.075385e+03
1.055693e+03
1.037975e+03
1.022266e+03
1.008596e+03
9.969892e+02
9.874664e+02
9.800436e+02
9.747330e+02
9.715433e+02
9.704796e+02
9.672602e+02
9.683135e+02
9.714721e+02
9.767310e+02
9.840820e+02
9.935135e+02
1.005010e+03
1.018552e+03
1.034116e+03
1.051672e+03
1.071188e+03
1.092623e+03
1.115933e+03
1.141066e+03
1.167964e+03
1.196563e+03
1.226790e+03
1.258568e+03
1.291810e+03
1.326424e+03
1.362311e+03
1.399366e+03
1.437480e+03
1.476543e+03
1.516462e+03
1.557276e+03
1.595603e+03
1.631640e+03
1.667698e+03
1.703829e+03
1.739923e+03
1.775867e+03
1.811551e+03
1.846865e+03
1.881707e+03
1.915976e+03
1.949580e+03
1.982432e+03
2.014453e+03
2.045570e+03
2.075719e+03
2.104846e+03
2.132902e+03
2.159849e+03
2.185655e+03
2.210297e+03
2.233762e+03
2.256042e+03
2.277136e+03
2.297052e+03
2.315802e+03
2.333406e+03
2.349885e+03
2.365268e+03
2.379586e+03
2.392875e+03
2.405172e+03
2.416516e+03
2.426948e+03
2.436507e+03
2.445238e+03
2.453180e+03
2.460374e+03
2.466859e+03
2.472674e+03
2.477855e+03
2.482434e+03
2.486444e+03
2.489913e+03
2.492867e+03
2.495328e+03
2.497315e+03
2.498845e+03
2.499930e+03
2.500580e+03
2.500799e+03
2.500590e+03
2.499950e+03
2.498875e+03
2.497355e+03
2.495379e+03
2.492930e+03
2.489989e+03
2.486534e+03
2.482538e+03
2.477975e+03
2.472811e+03
2.467015e+03
2.460549e+03
2.453376e+03
2.445458e+03
2.436752e+03
2.427219e+03
2.416816e+03
2.405503e+03
2.393238e+03
2.379983e+03
2.365700e+03
2.350354e+03
2.333915e+03
2.316352e+03
2.297644e+03
2.277770e+03
2.256720e+03
2.234485e+03
2.211065e+03
2.186467e+03
2.160706e+03
2.133805e+03
2.105793e+03
2.076709e+03
2.046601e+03
2.015524e+03
1.983542e+03
1.950725e+03
1.917154e+03
1.882915e+03
1.848100e+03
1.812809e+03
1.777146e+03
1.741218e+03
1.705136e+03
1.669014e+03
1.632960e+03
1.596924e+03
1.558593e+03
1.517771e+03
1.477841e+03
1.438763e+03
1.400632e+03
1.363557e+03
1.327646e+03
1.293007e+03
1.259739e+03
1.227933e+03
1.197676e+03
1.169048e+03
1.142119e+03
1.116956e+03
1.093617e+03
1.072154e+03
1.052612e+03
1.035030e+03
1.019444e+03
1.005881e+03
9.943670e+02
9.849206e+02
9.775577e+02
9.722903e+02
9.691266e+02
9.680715e+02
9.645676e+02
9.656113e+02
9.687405e+02
9.739509e+02
9.812345e+02
9.905800e+02
1.001972e+03
1.015393e+03
1.030818e+03
1.048221e+03
1.067568e+03
1.088821e+03
1.111937e+03
1.136864e+03
1.163547e+03
1.191922e+03
1.221920e+03
1.253462e+03
1.286465e+03
1.320839e+03
1.356486e+03
1.393304e+03
1.431183e+03
1.470015e+03
1.509691e+03
1.550136e+03
1.589639e+03
1.625242e+03
1.661163e+03
1.697177e+03
1.733154e+03
1.768993e+03
1.804586e+03
1.839825e+03
1.874606e+03
1.908830e+03
1.942405e+03
1.975244e+03
2.007267e+03
2.038403e+03
2.068586e+03
2.097760e+03
2.125878e+03
2.152899e+03
2.178791e+03
2.203531e+03
2.227103e+03
2.249499e+03
2.270718e+03
2.290764e+03
2.309650e+03
2.327393e+03
2.344015e+03
2.359543e+03
2.374008e+03
2.387443e+03
2.399885e+03
2.411371e+03
2.421941e+03
2.431637e+03
2.440498e+03
2.448565e+03
2.455879e+03
2.462477e+03
2.468397e+03
2.473676e+03
2.478344e+03
2.482436e+03
2.485977e+03
2.488993e+03
2.491508e+03
2.493540e+03
2.495104e+03
2.496214e+03
2.496879e+03
2.497103e+03
2.496888e+03
2.496234e+03
2.495134e+03
2.493580e+03
2.491559e+03
2.489056e+03
2.486052e+03
2.482524e+03
2.478448e+03
2.473794e+03
2.468533e+03
2.462631e+03
2.456052e+03
2.448760e+03
2.440716e+03
2.431879e+03
2.422210e+03
2.411668e+03
2.400212e+03
2.387802e+03
2.374401e+03
2.359971e+03
2.344480e+03
2.327896e+03
2.310194e+03
2.291349e+03
2.271345e+03
2.250170e+03
2.227818e+03
2.204290e+03
2.179595e+03
2.153748e+03
2.126771e+03
2.098697e+03
2.069565e+03
2.039423e+03
2.008327e+03
1.976342e+03
1.943538e+03
1.909995e+03
1.875801e+03
1.841047e+03
1.805831e+03
1.770258e+03
1.734435e+03
1.698470e+03
1.662465e+03
1.626548e+03
1.590946e+03
1.551439e+03
1.510986e+03
1.471299e+03
1.432453e+03
1.394556e+03
1.357718e+03
1.322049e+03
1.287650e+03
1.254620e+03
1.223050e+03
1.193024e+03
1.164619e+03
1.137906e+03
1.112949e+03
1.089805e+03
1.068524e+03
1.049150e+03
1.031723e+03
1.016275e+03
1.002834e+03
9.914241e+02
9.820640e+02
9.747688e+02
9.695500e+02
9.664155e+02
9.653702e+02
9.615930e+02
9.626258e+02
9.657227e+02
9.708792e+02
9.780877e+02
9.873375e+02
9.986143e+02
1.011900e+03
1.027172e+03
1.044403e+03
1.063563e+03
1.084614e+03
1.107513e+03
1.132211e+03
1.158654e+03
1.186780e+03
1.216521e+03
1.247800e+03
1.280537e+03
1.314642e+03
1.350020e+03