<?xml version="1.0"?>
<VTKFile type="UnstructuredGrid" version="0.1">
<UnstructuredGrid>
<FieldData>
<DataArray Name="TIME" type="Float64" format="ascii" NumberOfTuples="1">
0.000000e+00
</DataArray>
</FieldData>
<FieldData>
<DataArray Name="CYCLE" type="Int32" format="ascii" NumberOfTuples="1">
0
</DataArray>
</FieldData>
<Piece NumberOfPoints="22801" NumberOfCells="22500">
<Points>
<DataArray NumberOfComponents="3" type="Float64" format="ascii">
0.000000e+00 0.000000e+00 0.000000e+00
4.000000e+00 0.000000e+00 0.000000e+00
8.000000e+00 0.000000e+00 0.000000e+00
1.200000e+01 0.000000e+00 0.000000e+00
1.600000e+01 0.000000e+00 0.000000e+00
2.000000e+01 0.000000e+00 0.000000e+00
2.400000e+01 0.000000e+00 0.000000e+00
2.800000e+01 0.000000e+00 0.000000e+00
3.200000e+01 0.000000e+00 0.000000e+00
3.600000e+01 0.000000e+00 0.000000e+00
4.000000e+01 0.000000e+00 0.000000e+00
4.400000e+01 0.000000e+00 0.000000e+00
4.800000e+01 0.000000e+00 0.000000e+00
5.200000e+01 0.000000e+00 0.000000e+00
5.600000e+01 0.000000e+00 0.000000e+00
6.000000e+01 0.000000e+00 0.000000e+00
6.400000e+01 0.000000e+00 0.000000e+00
6.800000e+01 0.000000e+00 0.000000e+00
7.200000e+01 0.000000e+00 0.000000e+00
7.600000e+01 0.000000e+00 0.000000e+00
8.000000e+01 0.000000e+00 0.000000e+00
8.400000e+01 0.000000e+00 0.000000e+00
8.800000e+01 0.000000e+00 0.000000e+00
9.200000e+01 0.000000e+00 0.000000e+00
9.600000e+01 0.000000e+00 0.000000e+00
1.000000e+02 0.000000e+00 0.000000e+00
1.040000e+02 0.000000e+00 0.000000e+00
1.080000e+02 0.000000e+00 0.000000e+00
1.120000e+02 0.000000e+00 0.000000e+00
1.160000e+02 0.000000e+00 0.000000e+00
1.200000e+02 0.000000e+00 0.000000e+00
1.240000e+02 0.000000e+00 0.000000e+00
1.280000e+02 0.000000e+00 0.000000e+00
1.320000e+02 0.000000e+00 0.000000e+00
1.360000e+02 0.000000e+00 0.000000e+00
1.400000e+02 0.000000e+00 0.000000e+00
1.440000e+02 0.000000e+00 0.000000e+00
1.480000e+02 0.000000e+00 0.000000e+00
1.520000e+02 0.000000e+00 0.000000e+00
1.560000e+02 0.000000e+00 0.000000e+00
1.600000e+02 0.000000e+00 0.000000e+00
1.640000e+02 0.000000e+00 0.000000e+00
1.680000e+02 0.000000e+00 0.000000e+00
1.720000e+02 0.000000e+00 0.000000e+00
1.760000e+02 0.000000e+00 0.000000e+00
1.800000e+02 0.000000e+00 0.000000e+00
1.840000e+02 0.000000e+00 0.000000e+00
1.880000e+02 0.000000e+00 0.000000e+00
1.920000e+02 0.000000e+00 0.000000e+00
1.960000e+02 0.000000e+00 0.000000e+00
2.000000e+02 0.000000e+00 0.000000e+00
2.040000e+02 0.000000e+00 0.000000e+00
2.080000e+02 0.000000e+00 0.000000e+00
2.120000e+02 0.000000e+00 0.000000e+00
2.160000e+02 0.000000e+00 0.000000e+00
2.200000e+02 0.000000e+00 0.000000e+00
2.240000e+02 0.000000e+00 0.000000e+00
2.280000e+02 0.000000e+00 0.000000e+00
2.320000e+02 0.000000e+00 0.000000e+00
2.360000e+02 0.000000e+00 0.000000e+00
2.400000e+02 0.000000e+00 0.000000e+00
2.440000e+02 0.000000e+00 0.000000e+00
2.480000e+02 0.000000e+00 0.000000e+00
2.520000e+02 0.000000e+00 0.000000e+00
2.560000e+02 0.000000e+00 0.000000e+00
2.600000e+02 0.000000e+00 0.000000e+00
2.640000e+02 0.000000e+00 0.000000e+00
2.680000e+02 0.000000e+00 0.000000e+00
2.720000e+02 0.000000e+00 0.000000e+00
2.760000e+02 0.000000e+00 0.000000e+00
2.800000e+02 0.000000e+00 0.000000e+00
2.840000e+02 0.000000e+00 0.000000e+00
2.880000e+02 0.000000e+00 0.000000e+00
2.920000e+02 0.000000e+00 0.000000e+00
2.960000e+02 0.000000e+00 0.000000e+00
3.000000e+02 0.000000e+00 0.000000e+00
3.040000e+02 0.000000e+00 0.000000e+00
3.080000e+02 0.000000e+00 0.000000e+00
3.120000e+02 0.000000e+00 0.000000e+00
3.160000e+02 0.000000e+00 0.000000e+00
3.200000e+02 0.000000e+00 0.000000e+00
3.240000e+02 0.000000e+00 0.000000e+00
3.280000e+02 0.000000e+00 0.000000e+00
3.320000e+02 0.000000e+00 0.000000e+00
3.360000e+02 0.000000e+00 0.000000e+00
3.400000e+02 0.000000e+00 0.000000e+00
3.440000e+02 0.000000e+00 0.000000e+00
3.480000e+02 0.000000e+00 0.000000e+00
3.520000e+02 0.000000e+00 0.000000e+00
3.560000e+02 0.000000e+00 0.000000e+00
3.600000e+02 0.000000e+00 0.000000e+00
3.640000e+02 0.000000e+00 0.000000e+00
3.680000e+02 0.000000e+00 0.000000e+00
3.720000e+02 0.000000e+00 0.000000e+00
3.760000e+02 0.000000e+00 0.000000e+00
3.800000e+02 0.000000e+00 0.000000e+00
3.840000e+02 0.000000e+00 0.000000e+00
3.880000e+02 0.000000e+00 0.000000e+00
3.920000e+02 0.000000e+00 0.000000e+00
3.960000e+02 0.000000e+00 0.000000e+00
4.000000e+02 0.000000e+00 0.000000e+00
4.040000e+02 0.000000e+00 0.000000e+00
4.080000e+02 0.000000e+00 0.000000e+00
4.120000e+02 0.000000e+00 0.000000e+00
4.160000e+02 0.000000e+00 0.000000e+00
4.200000e+02 0.000000e+00 0.000000e+00
4.240000e+02 0.000000e+00 0.000000e+00
4.280000e+02 0.000000e+00 0.000000e+00
4.320000e+02 0.000000e+00 0.000000e+00
4.360000e+02 0.000000e+00 0.000000e+00
4.400000e+02 0.000000e+00 0.000000e+00
4.440000e+02 0.000000e+00 0.000000e+00
4.480000e+02 0.000000e+00 0.000000e+00
4.520000e+02 0.000000e+00 0.000000e+00
4.560000e+02 0.000000e+00 0.000000e+00
4.600000e+02 0.000000e+00 0.000000e+00
4.640000e+02 0.000000e+00 0.000000e+00
4.680000e+02 0.000000e+00 0.000000e+00
4.720000e+02 0.000000e+00 0.000000e+00
4.760000e+02 0.000000e+00 0.000000e+00
4.800000e+02 0.000000e+00 0.000000e+00
4.840000e+02 0.000000e+00 0.000000e+00
4.880000e+02 0.000000e+00 0.000000e+00
4.920000e+02 0.000000e+00 0.000000e+00
4.960000e+02 0.000000e+00 0.000000e+00
5.000000e+02 0.000000e+00 0.000000e+00
5.040000e+02 0.000000e+00 0.000000e+00
5.080000e+02 0.000000e+00 0.000000e+00
5.120000e+02 0.000000e+00 0.000000e+00
5.160000e+02 0.000000e+00 0.000000e+00
5.200000e+02 0.000000e+00 0.000000e+00
5.240000e+02 0.000000e+00 0.000000e+00
5.280000e+02 0.000000e+00 0.000000e+00
5.320000e+02 0.000000e+00 0.000000e+00
5.360000e+02 0.000000e+00 0.000000e+00
5.400000e+02 0.000000e+00 0.000000e+00
5.440000e+02 0.000000e+00 0.000000e+00
5.480000e+02 0.000000e+00 0.000000e+00
5.520000e+02 0.000000e+00 0.000000e+00
5.560000e+02 0.000000e+00 0.000000e+00
5.600000e+02 0.000000e+00 0.000000e+00
5.640000e+02 0.000000e+00 0.000000e+00
5.680000e+02 0.000000e+00 0.000000e+00
5.720000e+02 0.000000e+00 0.000000e+00
5.760000e+02 0.000000e+00 0.000000e+00
5.800000e+02 0.000000e+00 0.000000e+00
5.840000e+02 0.000000e+00 0.000000e+00
5.880000e+02 0.000000e+00 0.000000e+00
5.920000e+02 0.000000e+00 0.000000e+00
5.960000e+02 0.000000e+00 0.000000e+00
6.000000e+02 0.000000e+00 0.000000e+00
0.000000e+00 4.000000e+00 0.000000e+00
4.000000e+00 4.000000e+00 0.000000e+00
8.000000e+00 4.000000e+00 0.000000e+00
1.200000e+01 4.000000e+00 0.000000e+00
1.600000e+01 4.000000e+00 0.000000e+00
2.000000e+01 4.000000e+00 0.000000e+00
2.400000e+01 4.000000e+00 0.000000e+00
2.800000e+01 4.000000e+00 0.000000e+00
3.200000e+01 4.000000e+00 0.000000e+00
3.600000e+01 4.000000e+00 0.000000e+00
4.000000e+01 4.000000e+00 0.000000e+00
4.400000e+01 4.000000e+00 0.000000e+00
4.800000e+01 4.000000e+00 0.000000e+00
5.200000e+01 4.000000e+00 0.000000e+00
5.600000e+01 4.000000e+00 0.000000e+00
6.000000e+01 4.000000e+00 0.000000e+00
6.400000e+01 4.000000e+00 0.000000e+00
6.800000e+01 4.000000e+00 0.000000e+00
7.200000e+01 4.000000e+00 0.000000e+00
7.600000e+01 4.000000e+00 0.000000e+00
8.000000e+01 4.000000e+00 0.000000e+00
8.400000e+01 4.000000e+00 0.000000e+00
8.800000e+01 4.000000e+00 0.000000e+00
9.200000e+01 4.000000e+00 0.000000e+00
9.600000e+01 4.000000e+00 0.000000e+00
1.000000e+02 4.000000e+00 0.000000e+00
1.040000e+02 4.000000e+00 0.000000e+00
1.080000e+02 4.000000e+00 0.000000e+00
1.120000e+02 4.000000e+00 0.000000e+00
1.160000e+02 4.000000e+00 0.000000e+00
1.200000e+02 4.000000e+00 0.000000e+00
1.240000e+02 4.000000e+00 0.000000e+00
1.280000e+02 4.000000e+00 0.000000e+00
1.320000e+02 4.000000e+00 0.000000e+00
1.360000e+02 4.000000e+00 0.000000e+00
1.400000e+02 4.000000e+00 0.000000e+00
1.440000e+02 4.000000e+00 0.000000e+00
1.480000e+02 4.000000e+00 0.000000e+00
1.520000e+02 4.000000e+00 0.000000e+00
1.560000e+02 4.000000e+00 0.000000e+00
1.600000e+02 4.000000e+00 0.000000e+00
1.640000e+02 4.000000e+00 0.000000e+00
1.680000e+02 4.000000e+00 0.000000e+00
1.720000e+02 4.000000e+00 0.000000e+00
1.760000e+02 4.000000e+00 0.000000e+00
1.800000e+02 4.000000e+00 0.000000e+00
1.840000e+02 4.000000e+00 0.000000e+00
1.880000e+02 4.000000e+00 0.000000e+00
1.920000e+02 4.000000e+00 0.000000e+00
1.960000e+02 4.000000e+00 0.000000e+00
2.000000e+02 4.000000e+00 0.000000e+00
2.040000e+02 4.000000e+00 0.000000e+00
2.080000e+02 4.000000e+00 0.000000e+00
2.120000e+02 4.000000e+00 0.000000e+00
2.160000e+02 4.000000e+00 0.000000e+00
2.200000e+02 4.000000e+00 0.000000e+00
2.240000e+02 4.000000e+00 0.000000e+00
2.280000e+02 4.000000e+00 0.000000e+00
2.320000e+02 4.000000e+00 0.000000e+00
2.360000e+02 4.000000e+00 0.000000e+00
2.400000e+02 4.000000e+00 0.000000e+00
2.440000e+02 4.000000e+00 0.000000e+00
2.480000e+02 4.000000e+00 0.000000e+00
2.520000e+02 4.000000e+00 0.000000e+00
2.560000e+02 4.000000e+00 0.000000e+00
2.600000e+02 4.000000e+00 0.000000e+00
2.640000e+02 4.000000e+00 0.000000e+00
2.680000e+02 4.000000e+00 0.000000e+00
2.720000e+02 4.000000e+00 0.000000e+00
2.760000e+02 4.000000e+00 0.000000e+00
2.800000e+02 4.000000e+00 0.000000e+00
2.840000e+02 4.000000e+00 0.000000e+00
2.880000e+02 4.000000e+00 0.000000e+00
2.920000e+02 4.000000e+00 0.000000e+00
2.960000e+02 4.000000e+00 0.000000e+00
3.000000e+02 4.000000e+00 0.000000e+00
3.040000e+02 4.000000e+00 0.000000e+00
3.080000e+02 4.000000e+00 0.000000e+00
3.120000e+02 4.000000e+00 0.000000e+00
3.160000e+02 4.000000e+00 0.000000e+00
3.200000e+02 4.000000e+00 0.000000e+00
3.240000e+02 4.000000e+00 0.000000e+00
3.280000e+02 4.000000e+00 0.000000e+00
3.320000e+02 4.000000e+00 0.000000e+00
3.360000e+02 4.000000e+00 0.000000e+00
3.400000e+02 4.000000e+00 0.000000e+00
3.440000e+02 4.000000e+00 0.000000e+00
3.480000e+02 4.000000e+00 0.000000e+00
3.520000e+02 4.000000e+00 0.000000e+00
3.560000e+02 4.000000e+00 0.000000e+00
3.600000e+02 4.000000e+00 0.000000e+00
3.640000e+02 4.000000e+00 0.000000e+00
3.680000e+02 4.000000e+00 0.000000e+00
[...]
<PointData>
<DataArray Name="T" type="Float64" NumberOfComponents="1" format="ascii">
7.463048e+02
7.463247e+02
7.463890e+02
7.465123e+02
7.467217e+02
7.470617e+02
7.476021e+02
7.484486e+02
7.497586e+02
7.517617e+02
7.547869e+02
7.592961e+02
7.659224e+02
7.755126e+02
7.891646e+02
8.082545e+02
8.344353e+02
8.695937e+02
9.157438e+02
9.748446e+02
1.048538e+03
1.137827e+03
1.242736e+03
1.362030e+03
1.493082e+03
1.631972e+03
1.754698e+03
1.875810e+03
1.990918e+03
2.096392e+03
2.189719e+03
2.269615e+03
2.335928e+03
2.389408e+03
2.431404e+03
2.463583e+03
2.487689e+03
2.505378e+03
2.518112e+03
2.527120e+03
2.533391e+03
2.537692e+03
2.540603e+03
2.542547e+03
2.543832e+03
2.544671e+03
2.545214e+03
2.545562e+03
2.545783e+03
2.545922e+03
2.546010e+03
2.546064e+03
2.546098e+03
2.546118e+03
2.546131e+03
2.546138e+03
2.546143e+03
2.546146e+03
2.546147e+03
2.546148e+03
2.546149e+03
2.546149e+03
2.546150e+03
2.546150e+03
2.546150e+03
2.546150e+03
2.546150e+03
2.546150e+03
2.546150e+03
2.546150e+03
2.546150e+03
2.546150e+03
2.546150e+03
2.546150e+03
2.546150e+03
2.546150e+03
2.546150e+03
2.546150e+03
2.546150e+03
2.546150e+03
2.546150e+03
2.546150e+03
2.546150e+03
2.546150e+03
2.546150e+03
2.546150e+03
2.546150e+03
2.546150e+03
2.546150e+03
2.546149e+03
2.546149e+03
2.546148e+03
2.546147e+03
2.546146e+03
2.546143e+03
2.546139e+03
2.546131e+03
2.546119e+03
2.546098e+03
2.546065e+03
2.546012e+03
2.545926e+03
2.545788e+03
2.545569e+03
2.545225e+03
2.544687e+03
2.543855e+03
2.542582e+03
2.540651e+03
2.537760e+03
2.533484e+03
2.527246e+03
2.518278e+03
2.505594e+03
2.487965e+03
2.463925e+03
2.431820e+03
2.389902e+03
2.336501e+03
2.270261e+03
2.190431e+03
2.097156e+03
1.991717e+03
1.876624e+03
1.755506e+03
1.632754e+03
1.493814e+03
1.362698e+03
1.243330e+03
1.138342e+03
1.048974e+03
9.752042e+02
9.160342e+02
8.698231e+02
8.346129e+02
8.083893e+02
7.892651e+02
7.755861e+02
7.659753e+02
7.593336e+02
7.548131e+02
7.517797e+02
7.497708e+02
7.484568e+02
7.476075e+02
7.470653e+02
7.467241e+02
7.465139e+02
7.463901e+02
7.463256e+02
7.463055e+02
7.463044e+02
7.463242e+02
7.463884e+02
7.465114e+02
7.467202e+02
7.470593e+02
7.475983e+02
7.484426e+02
7.497493e+02
7.517476e+02
7.547656e+02
7.592643e+02
7.658759e+02
7.754453e+02
7.890693e+02
8.081218e+02
8.342542e+02
8.693520e+02
9.154286e+02
9.744438e+02
1.048042e+03
1.137231e+03
1.242043e+03
1.361257e+03
1.492260e+03
1.631137e+03
1.753880e+03
1.875029e+03
1.990183e+03
2.095712e+03
2.189104e+03
2.269072e+03
2.335464e+03
2.389021e+03
2.431090e+03
2.463334e+03
2.487496e+03
2.505231e+03
2.518002e+03
2.527040e+03
2.533333e+03
2.537651e+03
2.540574e+03
2.542527e+03
2.543818e+03
2.544661e+03
2.545207e+03
2.545557e+03
2.545780e+03
2.545921e+03
2.546009e+03
2.546063e+03
2.546097e+03
2.546118e+03
2.546131e+03
2.546138e+03
2.546143e+03
2.546146e+03
2.546147e+03
2.546148e+03
2.546149e+03
2.546149e+03
2.546150e+03
2.546150e+03
2.546150e+03
2.546150e+03
2.546150e+03
2.546150e+03
2.546150e+03
2.546150e+03
2.546150e+03
2.546150e+03
2.546150e+03
2.546150e+03
2.546150e+03
2.546150e+03
2.546150e+03
2.546150e+03
2.546150e+03
2.546150e+03
2.546150e+03
2.546150e+03
2.546150e+03
2.546150e+03
2.546150e+03
2.546150e+03
2.546150e+03
2.546150e+03
2.546150e+03
2.546149e+03
2.546149e+03
2.546148e+03
2.546147e+03
2.546146e+03
2.546143e+03
2.546138e+03
2.546131e+03
2.546118e+03
2.546098e+03
2.546064e+03
2.546010e+03
2.545924e+03
2.545785e+03
2.545565e+03
2.545219e+03
2.544678e+03
2.543843e+03
2.542563e+03
2.540625e+03
2.537722e+03
2.533431e+03
2.527172e+03
2.518177e+03
2.505459e+03
2.487787e+03
2.463697e+03
2.431531e+03
2.389546e+03
2.336074e+03
2.269762e+03
2.189865e+03
2.096529e+03
1.991037e+03
1.875899e+03
1.754744e+03
1.631972e+03
1.493041e+03
1.361969e+03
1.242675e+03
1.137777e+03
1.048504e+03
9.748242e+02
9.157352e+02
8.695937e+02
8.344409e+02
8.082631e+02
7.891743e+02
7.755220e+02
7.659309e+02
7.593032e+02
7.547927e+02
7.517662e+02
7.497620e+02
7.484511e+02
7.476039e+02
7.470629e+02
7.467225e+02
7.465129e+02
7.463895e+02
7.463251e+02
7.463051e+02
7.463031e+02
7.463228e+02
7.463865e+02
7.465084e+02
7.467155e+02
7.470520e+02
7.475868e+02
7.484247e+02
7.497216e+02
7.517051e+02
7.547015e+02
7.591689e+02
7.657358e+02
7.752430e+02
7.887822e+02
8.077217e+02
8.337081e+02
8.686222e+02
9.144759e+02
9.732307e+02
1.046538e+03
1.135419e+03
1.239929e+03
1.358889e+03
1.489736e+03
1.628581e+03
1.751392e+03
1.872658e+03
1.987950e+03
2.093637e+03
2.187222e+03
2.267414e+03
2.334044e+03
2.387839e+03
2.430131e+03
2.462574e+03
2.486908e+03
2.504784e+03
2.517669e+03
2.526796e+03
2.533157e+03
2.537526e+03
2.540486e+03
2.542466e+03
2.543776e+03
2.544633e+03
2.545188e+03
2.545545e+03
2.545772e+03
2.545915e+03
2.546005e+03
2.546061e+03
2.546095e+03
2.546117e+03
2.546130e+03
2.546138e+03
2.546143e+03
2.546146e+03
2.546147e+03
2.546148e+03
2.546149e+03
2.546149e+03
2.546150e+03
2.546150e+03
2.546150e+03
2.546150e+03
2.546150e+03
2.546150e+03
2.546150e+03
2.546150e+03
2.546150e+03
2.546150e+03
2.546150e+03
2.546150e+03
2.546150e+03
2.546150e+03
2.546150e+03
2.546150e+03
2.546150e+03
2.546150e+03
2.546150e+03
2.546150e+03
2.546150e+03
2.546150e+03
2.546150e+03
2.546150e+03
2.546150e+03
2.546150e+03
2.546150e+03
2.546149e+03
2.546149e+03
2.546148e+03
2.546147e+03
2.546146e+03
2.546143e+03
2.546138e+03
2.546130e+03
2.546117e+03
2.546096e+03
2.546062e+03
2.546007e+03
2.545918e+03
2.545777e+03
2.545553e+03
2.545201e+03
2.544652e+03
2.543803e+03
2.542506e+03
2.540543e+03
2.537606e+03
2.533268e+03
2.526947e+03
2.517871e+03
2.505048e+03
2.487246e+03
2.462998e+03
2.430650e+03
2.388460e+03
2.334769e+03
2.268237e+03
2.188132e+03
2.094617e+03
1.988975e+03
1.873702e+03
1.752427e+03
1.629581e+03
1.490668e+03
1.359735e+03
1.240677e+03
1.136063e+03
1.047079e+03
9.736742e+02
9.148312e+02
8.689006e+02
8.339218e+02
8.078825e+02
7.889009e+02
7.753293e+02
7.657974e+02
7.592122e+02
7.547315e+02
7.517256e+02
7.497354e+02
7.484340e+02
7.475929e+02
7.470560e+02
7.467181e+02
7.465101e+02
7.463876e+02
7.463237e+02
7.463039e+02
7.463010e+02
7.463204e+02
7.463832e+02
7.465035e+02
7.467079e+02
7.470399e+02
7.475677e+02
7.483950e+02
7.496755e+02
7.516345e+02
7.545947e+02
7.590095e+02
7.655016e+02
7.749043e+02
7.883005e+02
8.070496e+02
8.327885e+02
8.673911e+02
9.128654e+02
9.711753e+02
1.043983e+03
1.132332e+03
1.236309e+03
1.354780e+03
1.485317e+03
1.624155e+03
1.747149e+03
1.868653e+03
1.984139e+03
2.090061e+03
2.183971e+03
2.264551e+03
2.331596e+03
2.385802e+03
2.428480e+03
2.461268e+03
2.485896e+03
2.504016e+03
2.517097e+03
2.526376e+03
2.532855e+03
2.537311e+03
2.540335e+03
2.542361e+03
2.543704e+03
2.544584e+03
2.545155e+03
2.545523e+03
2.545757e+03
2.545905e+03
2.545999e+03
2.546057e+03
2.546093e+03
2.546115e+03
2.546129e+03
2.546137e+03
2.546142e+03
2.546145e+03
2.546147e+03
2.546148e+03
2.546149e+03
2.546149e+03
2.546150e+03
2.546150e+03
2.546150e+03
2.546150e+03
2.546150e+03
2.546150e+03
2.546150e+03
2.546150e+03
2.546150e+03
2.546150e+03
2.546150e+03
2.546150e+03
2.546150e+03
2.546150e+03
2.546150e+03
2.546150e+03
2.546150e+03
2.546150e+03
2.546150e+03
2.546150e+03
2.546150e+03
2.546150e+03
2.546150e+03
2.546150e+03
2.546150e+03
2.546150e+03
2.546150e+03
2.546149e+03
2.546149e+03
2.546148e+03
2.546147e+03
2.546146e+03
2.546142e+03
2.546137e+03
2.546129e+03
2.546116e+03
2.546094e+03
2.546058e+03
2.546001e+03
2.545909e+03
2.545763e+03
2.545532e+03
2.545169e+03
2.544605e+03
2.543736e+03
2.542408e+03
2.540402e+03
2.537406e+03
2.532987e+03
2.526559e+03
2.517342e+03
2.504340e+03
2.486314e+03
2.461796e+03
2.429132e+03
2.386587e+03
2.332516e+03
2.265601e+03
2.185137e+03
2.091320e+03
1.985458e+03
1.869997e+03
1.748479e+03
1.625435e+03
1.486507e+03
1.355857e+03
1.237256e+03
1.133143e+03
1.044660e+03
9.717258e+02
9.133030e+02
8.677314e+02
8.330475e+02
8.072429e+02
7.884422e+02
7.750063e+02
7.655739e+02
7.590599e+02
7.546294e+02
7.516580e+02
7.496912e+02
7.484054e+02
7.475746e+02
7.470444e+02
7.467108e+02
7.465054e+02
7.463845e+02
7.463214e+02
7.463019e+02
7.462980e+02
7.463171e+02
7.463787e+02
7.464968e+02
7.466973e+02
7.470231e+02
7.475413e+02
7.483534e+02
7.496111e+02
7.515357e+02
7.544451e+02
7.587860e+02
7.651725e+02
7.744272e+02
7.876208e+02
8.060987e+02
8.314844e+02
8.656404e+02
9.105687e+02
9.682357e+02
1.040318e+03
1.127888e+03
1.231072e+03
1.348782e+03
1.478572e+03
1.617412e+03
1.741262e+03
1.863042e+03
1.978559e+03
2.084800e+03
2.179188e+03
2.260341e+03
2.328001e+03
2.382816e+03
2.426062e+03
2.459355e+03
2.484416e+03
2.502893e+03
2.516260e+03
2.525764e+03
2.532413e+03
2.536996e+03
2.540114e+03
2.542208e+03
2.543598e+03
2.544512e+03
2.545107e+03
2.545490e+03
2.545735e+03
2.545891e+03
2.545989e+03
2.546051e+03
2.546089e+03
2.546113e+03
2.546127e+03
2.546136e+03
2.546142e+03
2.546145e+03
2.546147e+03
2.546148e+03
2.546149e+03
2.546149e+03
2.546150e+03
2.546150e+03
2.546150e+03
2.546150e+03
2.546150e+03
2.546150e+03
2.546150e+03
2.546150e+03
2.546150e+03
2.546150e+03
2.546150e+03
2.546150e+03
2.546150e+03
2.546150e+03
2.546150e+03
2.546150e+03
2.546150e+03
2.546150e+03
2.546150e+03
2.546150e+03
2.546150e+03
2.546150e+03
2.546150e+03
2.546150e+03
2.546150e+03
2.546150e+03
2.546150e+03
2.546149e+03
2.546149e+03
2.546148e+03
2.546147e+03
2.546145e+03
2.546142e+03
2.546136e+03
2.546127e+03
2.546113e+03
2.546090e+03
2.546052e+03
2.545992e+03
2.545896e+03
2.545742e+03
2.545501e+03
2.545123e+03
2.544537e+03
2.543636e+03
2.542264e+03
2.540195e+03
2.537112e+03
2.532576e+03
2.525990e+03
2.516567e+03
2.503301e+03
2.484948e+03
2.460032e+03
2.426903e+03
2.383836e+03
2.329205e+03
2.261723e+03
2.180728e+03
2.086468e+03
1.980310e+03
1.864825e+03
1.743022e+03
1.619099e+03
1.480139e+03
1.350193e+03
1.232306e+03
1.128938e+03
1.041189e+03
9.689388e+02
9.111233e+02
8.660682e+02
8.318073e+02
8.063377e+02
7.877945e+02
7.745513e+02
7.652596e+02
7.588463e+02
7.544862e+02
7.515634e+02
7.496295e+02
7.483655e+02
7.475491e+02
7.470283e+02
7.467006e+02
7.464989e+02
7.463802e+02
7.463182e+02
7.462990e+02
7.462943e+02
7.463129e+02
7.463730e+02
7.464882e+02
7.466838e+02
7.470017e+02
7.475074e+02
7.483004e+02
7.495287e+02
7.514092e+02
7.542531e+02
7.584985e+02
7.647483e+02
7.738110e+02
7.867404e+02
8.048636e+02
8.297854e+02
8.633523e+02
9.075568e+02
9.643675e+02
1.035479e+03
1.122001e+03
1.224113e+03
1.340776e+03
1.469575e+03
1.606142e+03
1.735118e+03
1.855305e+03
1.970931e+03
2.077612e+03
2.172664e+03
2.254609e+03
2.323111e+03
2.378758e+03
2.422778e+03
2.456759e+03
2.482407e+03
2.501370e+03
2.515125e+03
2.524931e+03
2.531812e+03
2.536568e+03
2.539812e+03
2.541998e+03
2.543454e+03
2.544414e+03
2.545040e+03
2.545445e+03
2.545705e+03
2.545871e+03
2.545976e+03
2.546042e+03
2.546083e+03
2.546109e+03
2.546125e+03
2.546135e+03
2.546141e+03
2.546144e+03
2.546146e+03
2.546148e+03
2.546149e+03
2.546149e+03
2.546149e+03
2.546150e+03
2.546150e+03
2.546150e+03
2.546150e+03
2.546150e+03
2.546150e+03
2.546150e+03
2.546150e+03
2.546150e+03
2.546150e+03
2.546150e+03
2.546150e+03
2.546150e+03
2.546150e+03
2.546150e+03
2.546150e+03
2.546150e+03
2.546150e+03
2.546150e+03
2.546150e+03
2.546150e+03
2.546150e+03
2.546150e+03
2.546150e+03
2.546150e+03
2.546149e+03
2.546149e+03
2.546149e+03
2.546148e+03
2.546146e+03
2.546144e+03
2.546141e+03
2.546135e+03
2.546125e+03
2.546110e+03
2.546084e+03
2.546044e+03
2.545979e+03
2.545876e+03
2.545714e+03
2.545458e+03
2.545060e+03
2.544444e+03
2.543500e+03
2.542066e+03
2.539911e+03
2.536710e+03
2.532014e+03
2.525213e+03
2.515511e+03
2.501887e+03
2.483087e+03
2.457632e+03
2.423870e+03
2.380090e+03
2.324693e+03
2.256433e+03
2.174707e+03
2.079829e+03
1.973264e+03
1.857683e+03
1.737464e+03
1.608381e+03
1.471648e+03
1.342635e+03
1.225730e+03
1.123368e+03
1.036605e+03
9.652700e+02
9.082632e+02
8.638928e+02
8.301902e+02
8.051608e+02
7.869547e+02
7.739628e+02
7.648541e+02
7.585712e+02
7.543023e+02
7.514420e+02
7.495504e+02
7.483146e+02
7.475166e+02
7.470076e+02
7.466876e+02
7.464906e+02
7.463747e+02
7.463142e+02
7.462954e+02
7.462899e+02
7.463079e+02
7.463661e+02
7.464778e+02
7.466675e+02
7.469760e+02
7.474666e+02
7.482362e+02
7.494289e+02
7.512556e+02
7.540197e+02
7.581483e+02
7.642302e+02
7.730563e+02
7.856592e+02
8.033421e+02
8.276857e+02
8.605147e+02
9.038083e+02
9.595355e+02
1.029413e+03
1.114596e+03
1.215344e+03
1.330716e+03
1.458329e+03
1.594447e+03
1.724418e+03
1.845028e+03
1.960915e+03
2.068240e+03
2.164177e+03
2.247159e+03
2.316760e+03
2.373488e+03
2.418514e+03
2.453388e+03
2.479798e+03
2.499388e+03
2.513647e+03
2.523847e+03
2.531027e+03
2.536008e+03
2.539418e+03
2.541723e+03
2.543264e+03
2.544284e+03
2.544952e+03
2.545386e+03
2.545666e+03
2.545845e+03
2.545958e+03
2.546031e+03
2.546076e+03
2.546104e+03
2.546122e+03
2.546132e+03
2.546139e+03
2.546143e+03
2.546146e+03
2.546147e+03
2.546148e+03
2.546149e+03
2.546149e+03
2.546150e+03
2.546150e+03
2.546150e+03
2.546150e+03
2.546150e+03
2.546150e+03
2.546150e+03
2.546150e+03
2.546150e+03
2.546150e+03
2.546150e+03
2.546150e+03
2.546150e+03
2.546150e+03
2.546150e+03
2.546150e+03
2.546150e+03
2.546150e+03
2.546150e+03
2.546150e+03
2.546150e+03
2.546150e+03
2.546150e+03
2.546150e+03
2.546150e+03
2.546149e+03
2.546149e+03
2.546148e+03
2.546147e+03
2.546146e+03
2.546143e+03
2.546139e+03
2.546133e+03
2.546122e+03
2.546105e+03
2.546077e+03
2.546033e+03
2.545962e+03
2.545851e+03
2.545675e+03
2.545401e+03
2.544975e+03
2.544319e+03
2.543318e+03
2.541804e+03
2.539537e+03
2.536182e+03
2.531275e+03
2.524196e+03
2.514129e+03
2.500039e+03
2.480659e+03
2.454501e+03
2.419917e+03
2.375210e+03
2.318816e+03
2.249542e+03
2.166855e+03
2.071156e+03
1.963987e+03
1.848160e+03
1.727510e+03
1.597396e+03
1.461043e+03
1.333137e+03
1.217439e+03
1.116358e+03
1.030853e+03
9.606826e+02
9.046999e+02
8.611919e+02
8.281891e+02
8.037090e+02
7.859216e+02
7.732409e+02
7.643579e+02
7.582354e+02
7.540782e+02
7.512945e+02
7.494544e+02
7.482528e+02
7.474773e+02
7.469827e+02
7.466719e+02
7.464806e+02
7.463680e+02
7.463093e+02
7.462911e+02
7.462847e+02
7.463021e+02
7.463583e+02
7.464658e+02
7.466487e+02
7.469460e+02
7.474192e+02
7.481616e+02
7.493126e+02
7.510762e+02
7.537465e+02
7.577375e+02
7.636211e+02
7.721668e+02
7.843812e+02
8.015382e+02
8.251879e+02
8.571276e+02
8.993172e+02
9.537242e+02
1.022089e+03
1.105625e+03
1.204689e+03
1.318488e+03
1.444944e+03
1.580592e+03
1.710711e+03
1.831783e+03
1.948294e+03
2.056459e+03
2.153514e+03
2.237798e+03
2.308774e+03
2.366857e+03
2.413143e+03
2.449136e+03
2.476502e+03
2.496882e+03
2.511774e+03
2.522469e+03
2.530028e+03
2.535294e+03
2.538913e+03
2.541370e+03
2.543020e+03
2.544116e+03
2.544838e+03
2.545309e+03
2.545614e+03
2.545810e+03
2.545936e+03
2.546015e+03
2.546065e+03
2.546097e+03
2.546117e+03
2.546130e+03
2.546137e+03
2.546142e+03
2.546145e+03
2.546147e+03
2.546148e+03
2.546149e+03
2.546149e+03
2.546149e+03
2.546150e+03
2.546150e+03
2.546150e+03
2.546150e+03
2.546150e+03
2.546150e+03
2.546150e+03
2.546150e+03
2.546150e+03
2.546150e+03
2.546150e+03
2.546150e+03
2.546150e+03
2.546150e+03
2.546150e+03
2.546150e+03
2.546150e+03
2.546150e+03
2.546150e+03
2.546150e+03
2.546150e+03
2.546150e+03
2.546150e+03
2.546149e+03
2.546149e+03
2.546149e+03
2.546148e+03
2.546147e+03
2.546145e+03
2.546142e+03
2.546137e+03
2.546130e+03
2.546118e+03
2.546098e+03
2.546067e+03
2.546018e+03
2.545940e+03
2.545817e+03
2.545625e+03
2.545326e+03
2.544865e+03
2.544158e+03
2.543083e+03
2.541466e+03
2.539056e+03
2.535503e+03
2.530329e+03
2.522895e+03
2.512365e+03
2.497686e+03
2.477573e+03
2.450530e+03
2.414911e+03
2.369041e+03
2.311395e+03
2.240850e+03
2.156957e+03
2.060217e+03
1.952260e+03
1.835828e+03
1.714701e+03
1.584388e+03
1.448425e+03
1.321581e+03
1.207353e+03
1.107852e+03
1.023899e+03
9.551565e+02
9.004230e+02
8.579618e+02
8.258040e+02
8.019841e+02
7.846981e+02
7.723881e+02
7.637733e+02
7.578406e+02
7.538154e+02
7.511218e+02
7.493422e+02
7.481808e+02
7.474315e+02
7.469538e+02
7.466536e+02
7.464690e+02
7.463604e+02
7.463037e+02
7.462861e+02
7.462790e+02
7.462957e+02
7.463494e+02
7.464524e+02
7.466275e+02
7.469123e+02
7.473657e+02
7.480773e+02
7.491810e+02
7.508730e+02
7.534363e+02
7.572701e+02
7.629265e+02
7.711497e+02
7.829158e+02
7.994639e+02
8.223066e+02
8.532068e+02
8.940999e+02
9.469474e+02
1.013514e+03
1.095078e+03
1.192106e+03
1.303978e+03
1.428845e+03
1.564027e+03
1.694227e+03
1.815899e+03
1.932944e+03
2.042103e+03
2.140498e+03
2.226345e+03
2.298984e+03
2.358709e+03
2.406528e+03
2.443887e+03
2.472422e+03
2.493771e+03
2.509443e+03
2.520749e+03
2.528778e+03
2.534396e+03
2.538276e+03
2.540923e+03
2.542709e+03
2.543902e+03
2.544691e+03
2.545209e+03
2.545547e+03
2.545765e+03
2.545906e+03
2.545995e+03
2.546052e+03
2.546088e+03
2.546111e+03
2.546126e+03
2.546135e+03
2.546140e+03
2.546144e+03
2.546146e+03
2.546148e+03
2.546148e+03
2.546149e+03
2.546149e+03
2.546150e+03
2.546150e+03
2.546150e+03
2.546150e+03
2.546150e+03
2.546150e+03
2.546150e+03
2.546150e+03
2.546150e+03
2.546150e+03
2.546150e+03
2.546150e+03
2.546150e+03
2.546150e+03
2.546150e+03
2.546150e+03
2.546150e+03
2.546150e+03
2.546150e+03
2.546150e+03
2.546150e+03
2.546150e+03
2.546150e+03
2.546149e+03
2.546149e+03
2.546148e+03
2.546148e+03
2.546146e+03
2.546144e+03
2.546141e+03
2.546135e+03
2.546126e+03
2.546112e+03
2.546090e+03
2.546054e+03
2.545998e+03
2.545910e+03
2.545773e+03
2.545560e+03
2.545229e+03
2.544723e+03
2.543950e+03
2.542783e+03
2.541035e+03
2.538444e+03
2.534643e+03
2.529135e+03
2.521257e+03
2.510152e+03
2.494743e+03
2.473724e+03
2.445592e+03
2.408704e+03
2.361411e+03
2.302243e+03
2.230158e+03
2.144814e+03
2.046828e+03
1.937937e+03
1.820989e+03
1.699240e+03
1.568787e+03
1.433199e+03
1.307832e+03
1.195411e+03
1.097826e+03
1.015735e+03
9.486950e+02
8.954409e+02
8.542123e+02
8.230445e+02
7.999948e+02
7.832909e+02
7.714102e+02
7.631046e+02
7.573901e+02
7.535161e+02
7.509254e+02
7.492150e+02
7.480991e+02
7.473796e+02
7.469211e+02
7.466331e+02
7.464559e+02
7.463517e+02
7.462974e+02
7.462805e+02
7.462727e+02
7.462885e+02
7.463396e+02
7.464376e+02
7.466042e+02
7.468752e+02
7.473068e+02
7.479844e+02
7.490357e+02
7.506483e+02
7.530927e+02
7.567514e+02
7.621540e+02
7.700161e+02
7.812786e+02
7.971398e+02
8.190688e+02
8.487870e+02
8.881983e+02
9.392537e+02
1.003740e+03
1.083002e+03
1.177626e+03
1.287144e+03
1.409851e+03
1.542864e+03
1.676726e+03
1.797292e+03
1.914816e+03
2.025070e+03
2.124980e+03
2.212639e+03
2.287223e+03
2.348886e+03
2.398524e+03
2.437512e+03
2.467449e+03
2.489964e+03
2.506579e+03
2.518628e+03
2.527229e+03
2.533280e+03
2.537481e+03
2.540363e+03
2.542318e+03
2.543631e+03
2.544506e+03
2.545083e+03
2.545461e+03
2.545707e+03
2.545866e+03
2.545969e+03
2.546035e+03
2.546077e+03
2.546104e+03
2.546121e+03
2.546131e+03
2.546138e+03
2.546142e+03
2.546145e+03
2.546147e+03
2.546148e+03
2.546149e+03
2.546149e+03
2.546149e+03
2.546150e+03
2.546150e+03
2.546150e+03
2.546150e+03
2.546150e+03
2.546150e+03
2.546150e+03
2.546150e+03
2.546150e+03
2.546150e+03
2.546150e+03
2.546150e+03
2.546150e+03
2.546150e+03
2.546150e+03
2.546150e+03
2.546150e+03
2.546150e+03
2.546150e+03
2.546150e+03
2.546150e+03
2.546149e+03
2.546149e+03
2.546149e+03
2.546148e+03
2.546147e+03
2.546145e+03
2.546143e+03
2.546138e+03
2.546132e+03
2.546121e+03
2.546104e+03
2.546078e+03
2.546037e+03
2.545972e+03
2.545872e+03
2.545716e+03
2.545475e+03
2.545105e+03
2.544541e+03
2.543686e+03
2.542403e+03
2.540491e+03
2.537674e+03
2.533564e+03
2.527643e+03
2.519220e+03
2.507411e+03
2.491109e+03
2.468992e+03
2.439543e+03
2.401130e+03
2.352138e+03
2.291165e+03
2.217269e+03
2.130240e+03
2.030841e+03
1.920922e+03
1.803519e+03
1.682832e+03
1.548656e+03
1.415143e+03
1.291813e+03
1.181612e+03
1.086302e+03
1.006394e+03
9.413305e+02
8.897834e+02
8.499691e+02
8.199317e+02
7.977573e+02
7.817126e+02
7.703160e+02
7.623580e+02
7.568883e+02
7.531833e+02
7.507076e+02
7.490740e+02
7.480089e+02
7.473224e+02
7.468851e+02
7.466104e+02
7.464415e+02
7.463422e+02
7.462904e+02
7.462744e+02
7.462659e+02
7.462809e+02
7.463292e+02
7.464218e+02
7.465792e+02
7.468354e+02
7.472433e+02
7.478842e+02
7.488788e+02
7.504053e+02
7.527206e+02
7.561886e+02
7.613141e+02
7.687810e+02
7.794907e+02
7.945955e+02
8.155146e+02
8.439210e+02
8.816800e+02
9.307261e+02
9.928654e+02