<?xml version="1.0"?>
<VTKFile type="UnstructuredGrid" version="0.1">
<UnstructuredGrid>
<FieldData>
<DataArray Name="TIME" type="Float64" format="ascii" NumberOfTuples="1">
0.000000e+00
</DataArray>
</FieldData>
<FieldData>
<DataArray Name="CYCLE" type="Int32" format="ascii" NumberOfTuples="1">
0
</DataArray>
</FieldData>
<Piece NumberOfPoints="22801" NumberOfCells="22500">
<Points>
<DataArray NumberOfComponents="3" type="Float64" format="ascii">
0.000000e+00 0.000000e+00 0.000000e+00
4.000000e+00 0.000000e+00 0.000000e+00
8.000000e+00 0.000000e+00 0.000000e+00
1.200000e+01 0.000000e+00 0.000000e+00
1.600000e+01 0.000000e+00 0.000000e+00
2.000000e+01 0.000000e+00 0.000000e+00
2.400000e+01 0.000000e+00 0.000000e+00
2.800000e+01 0.000000e+00 0.000000e+00
3.200000e+01 0.000000e+00 0.000000e+00
3.600000e+01 0.000000e+00 0.000000e+00
4.000000e+01 0.000000e+00 0.000000e+00
4.400000e+01 0.000000e+00 0.000000e+00
4.800000e+01 0.000000e+00 0.000000e+00
5.200000e+01 0.000000e+00 0.000000e+00
5.600000e+01 0.000000e+00 0.000000e+00
6.000000e+01 0.000000e+00 0.000000e+00
6.400000e+01 0.000000e+00 0.000000e+00
6.800000e+01 0.000000e+00 0.000000e+00
7.200000e+01 0.000000e+00 0.000000e+00
7.600000e+01 0.000000e+00 0.000000e+00
8.000000e+01 0.000000e+00 0.000000e+00
8.400000e+01 0.000000e+00 0.000000e+00
8.800000e+01 0.000000e+00 0.000000e+00
9.200000e+01 0.000000e+00 0.000000e+00
9.600000e+01 0.000000e+00 0.000000e+00
1.000000e+02 0.000000e+00 0.000000e+00
1.040000e+02 0.000000e+00 0.000000e+00
1.080000e+02 0.000000e+00 0.000000e+00
1.120000e+02 0.000000e+00 0.000000e+00
1.160000e+02 0.000000e+00 0.000000e+00
1.200000e+02 0.000000e+00 0.000000e+00
1.240000e+02 0.000000e+00 0.000000e+00
1.280000e+02 0.000000e+00 0.000000e+00
1.320000e+02 0.000000e+00 0.000000e+00
1.360000e+02 0.000000e+00 0.000000e+00
1.400000e+02 0.000000e+00 0.000000e+00
1.440000e+02 0.000000e+00 0.000000e+00
1.480000e+02 0.000000e+00 0.000000e+00
1.520000e+02 0.000000e+00 0.000000e+00
1.560000e+02 0.000000e+00 0.000000e+00
1.600000e+02 0.000000e+00 0.000000e+00
1.640000e+02 0.000000e+00 0.000000e+00
1.680000e+02 0.000000e+00 0.000000e+00
1.720000e+02 0.000000e+00 0.000000e+00
1.760000e+02 0.000000e+00 0.000000e+00
1.800000e+02 0.000000e+00 0.000000e+00
1.840000e+02 0.000000e+00 0.000000e+00
1.880000e+02 0.000000e+00 0.000000e+00
1.920000e+02 0.000000e+00 0.000000e+00
1.960000e+02 0.000000e+00 0.000000e+00
2.000000e+02 0.000000e+00 0.000000e+00
2.040000e+02 0.000000e+00 0.000000e+00
2.080000e+02 0.000000e+00 0.000000e+00
2.120000e+02 0.000000e+00 0.000000e+00
2.160000e+02 0.000000e+00 0.000000e+00
2.200000e+02 0.000000e+00 0.000000e+00
2.240000e+02 0.000000e+00 0.000000e+00
2.280000e+02 0.000000e+00 0.000000e+00
2.320000e+02 0.000000e+00 0.000000e+00
2.360000e+02 0.000000e+00 0.000000e+00
2.400000e+02 0.000000e+00 0.000000e+00
2.440000e+02 0.000000e+00 0.000000e+00
2.480000e+02 0.000000e+00 0.000000e+00
2.520000e+02 0.000000e+00 0.000000e+00
2.560000e+02 0.000000e+00 0.000000e+00
2.600000e+02 0.000000e+00 0.000000e+00
2.640000e+02 0.000000e+00 0.000000e+00
2.680000e+02 0.000000e+00 0.000000e+00
2.720000e+02 0.000000e+00 0.000000e+00
2.760000e+02 0.000000e+00 0.000000e+00
2.800000e+02 0.000000e+00 0.000000e+00
2.840000e+02 0.000000e+00 0.000000e+00
2.880000e+02 0.000000e+00 0.000000e+00
2.920000e+02 0.000000e+00 0.000000e+00
2.960000e+02 0.000000e+00 0.000000e+00
3.000000e+02 0.000000e+00 0.000000e+00
3.040000e+02 0.000000e+00 0.000000e+00
3.080000e+02 0.000000e+00 0.000000e+00
3.120000e+02 0.000000e+00 0.000000e+00
3.160000e+02 0.000000e+00 0.000000e+00
3.200000e+02 0.000000e+00 0.000000e+00
3.240000e+02 0.000000e+00 0.000000e+00
3.280000e+02 0.000000e+00 0.000000e+00
3.320000e+02 0.000000e+00 0.000000e+00
3.360000e+02 0.000000e+00 0.000000e+00
3.400000e+02 0.000000e+00 0.000000e+00
3.440000e+02 0.000000e+00 0.000000e+00
3.480000e+02 0.000000e+00 0.000000e+00
3.520000e+02 0.000000e+00 0.000000e+00
3.560000e+02 0.000000e+00 0.000000e+00
3.600000e+02 0.000000e+00 0.000000e+00
3.640000e+02 0.000000e+00 0.000000e+00
3.680000e+02 0.000000e+00 0.000000e+00
3.720000e+02 0.000000e+00 0.000000e+00
3.760000e+02 0.000000e+00 0.000000e+00
3.800000e+02 0.000000e+00 0.000000e+00
3.840000e+02 0.000000e+00 0.000000e+00
3.880000e+02 0.000000e+00 0.000000e+00
3.920000e+02 0.000000e+00 0.000000e+00
3.960000e+02 0.000000e+00 0.000000e+00
4.000000e+02 0.000000e+00 0.000000e+00
4.040000e+02 0.000000e+00 0.000000e+00
4.080000e+02 0.000000e+00 0.000000e+00
4.120000e+02 0.000000e+00 0.000000e+00
4.160000e+02 0.000000e+00 0.000000e+00
4.200000e+02 0.000000e+00 0.000000e+00
4.240000e+02 0.000000e+00 0.000000e+00
4.280000e+02 0.000000e+00 0.000000e+00
4.320000e+02 0.000000e+00 0.000000e+00
4.360000e+02 0.000000e+00 0.000000e+00
4.400000e+02 0.000000e+00 0.000000e+00
4.440000e+02 0.000000e+00 0.000000e+00
4.480000e+02 0.000000e+00 0.000000e+00
4.520000e+02 0.000000e+00 0.000000e+00
4.560000e+02 0.000000e+00 0.000000e+00
4.600000e+02 0.000000e+00 0.000000e+00
4.640000e+02 0.000000e+00 0.000000e+00
4.680000e+02 0.000000e+00 0.000000e+00
4.720000e+02 0.000000e+00 0.000000e+00
4.760000e+02 0.000000e+00 0.000000e+00
4.800000e+02 0.000000e+00 0.000000e+00
4.840000e+02 0.000000e+00 0.000000e+00
4.880000e+02 0.000000e+00 0.000000e+00
4.920000e+02 0.000000e+00 0.000000e+00
4.960000e+02 0.000000e+00 0.000000e+00
5.000000e+02 0.000000e+00 0.000000e+00
5.040000e+02 0.000000e+00 0.000000e+00
5.080000e+02 0.000000e+00 0.000000e+00
5.120000e+02 0.000000e+00 0.000000e+00
5.160000e+02 0.000000e+00 0.000000e+00
5.200000e+02 0.000000e+00 0.000000e+00
5.240000e+02 0.000000e+00 0.000000e+00
5.280000e+02 0.000000e+00 0.000000e+00
5.320000e+02 0.000000e+00 0.000000e+00
5.360000e+02 0.000000e+00 0.000000e+00
5.400000e+02 0.000000e+00 0.000000e+00
5.440000e+02 0.000000e+00 0.000000e+00
5.480000e+02 0.000000e+00 0.000000e+00
5.520000e+02 0.000000e+00 0.000000e+00
5.560000e+02 0.000000e+00 0.000000e+00
5.600000e+02 0.000000e+00 0.000000e+00
5.640000e+02 0.000000e+00 0.000000e+00
5.680000e+02 0.000000e+00 0.000000e+00
5.720000e+02 0.000000e+00 0.000000e+00
5.760000e+02 0.000000e+00 0.000000e+00
5.800000e+02 0.000000e+00 0.000000e+00
5.840000e+02 0.000000e+00 0.000000e+00
5.880000e+02 0.000000e+00 0.000000e+00
5.920000e+02 0.000000e+00 0.000000e+00
5.960000e+02 0.000000e+00 0.000000e+00
6.000000e+02 0.000000e+00 0.000000e+00
0.000000e+00 4.000000e+00 0.000000e+00
4.000000e+00 4.000000e+00 0.000000e+00
8.000000e+00 4.000000e+00 0.000000e+00
1.200000e+01 4.000000e+00 0.000000e+00
1.600000e+01 4.000000e+00 0.000000e+00
2.000000e+01 4.000000e+00 0.000000e+00
2.400000e+01 4.000000e+00 0.000000e+00
2.800000e+01 4.000000e+00 0.000000e+00
3.200000e+01 4.000000e+00 0.000000e+00
3.600000e+01 4.000000e+00 0.000000e+00
4.000000e+01 4.000000e+00 0.000000e+00
4.400000e+01 4.000000e+00 0.000000e+00
4.800000e+01 4.000000e+00 0.000000e+00
5.200000e+01 4.000000e+00 0.000000e+00
5.600000e+01 4.000000e+00 0.000000e+00
6.000000e+01 4.000000e+00 0.000000e+00
6.400000e+01 4.000000e+00 0.000000e+00
6.800000e+01 4.000000e+00 0.000000e+00
7.200000e+01 4.000000e+00 0.000000e+00
7.600000e+01 4.000000e+00 0.000000e+00
8.000000e+01 4.000000e+00 0.000000e+00
8.400000e+01 4.000000e+00 0.000000e+00
8.800000e+01 4.000000e+00 0.000000e+00
9.200000e+01 4.000000e+00 0.000000e+00
9.600000e+01 4.000000e+00 0.000000e+00
1.000000e+02 4.000000e+00 0.000000e+00
1.040000e+02 4.000000e+00 0.000000e+00
1.080000e+02 4.000000e+00 0.000000e+00
1.120000e+02 4.000000e+00 0.000000e+00
1.160000e+02 4.000000e+00 0.000000e+00
1.200000e+02 4.000000e+00 0.000000e+00
1.240000e+02 4.000000e+00 0.000000e+00
1.280000e+02 4.000000e+00 0.000000e+00
1.320000e+02 4.000000e+00 0.000000e+00
1.360000e+02 4.000000e+00 0.000000e+00
1.400000e+02 4.000000e+00 0.000000e+00
1.440000e+02 4.000000e+00 0.000000e+00
1.480000e+02 4.000000e+00 0.000000e+00
1.520000e+02 4.000000e+00 0.000000e+00
1.560000e+02 4.000000e+00 0.000000e+00
1.600000e+02 4.000000e+00 0.000000e+00
1.640000e+02 4.000000e+00 0.000000e+00
1.680000e+02 4.000000e+00 0.000000e+00
1.720000e+02 4.000000e+00 0.000000e+00
1.760000e+02 4.000000e+00 0.000000e+00
1.800000e+02 4.000000e+00 0.000000e+00
1.840000e+02 4.000000e+00 0.000000e+00
1.880000e+02 4.000000e+00 0.000000e+00
1.920000e+02 4.000000e+00 0.000000e+00
1.960000e+02 4.000000e+00 0.000000e+00
2.000000e+02 4.000000e+00 0.000000e+00
2.040000e+02 4.000000e+00 0.000000e+00
2.080000e+02 4.000000e+00 0.000000e+00
2.120000e+02 4.000000e+00 0.000000e+00
2.160000e+02 4.000000e+00 0.000000e+00
2.200000e+02 4.000000e+00 0.000000e+00
2.240000e+02 4.000000e+00 0.000000e+00
2.280000e+02 4.000000e+00 0.000000e+00
2.320000e+02 4.000000e+00 0.000000e+00
2.360000e+02 4.000000e+00 0.000000e+00
2.400000e+02 4.000000e+00 0.000000e+00
2.440000e+02 4.000000e+00 0.000000e+00
2.480000e+02 4.000000e+00 0.000000e+00
2.520000e+02 4.000000e+00 0.000000e+00
2.560000e+02 4.000000e+00 0.000000e+00
2.600000e+02 4.000000e+00 0.000000e+00
2.640000e+02 4.000000e+00 0.000000e+00
2.680000e+02 4.000000e+00 0.000000e+00
2.720000e+02 4.000000e+00 0.000000e+00
2.760000e+02 4.000000e+00 0.000000e+00
2.800000e+02 4.000000e+00 0.000000e+00
2.840000e+02 4.000000e+00 0.000000e+00
2.880000e+02 4.000000e+00 0.000000e+00
2.920000e+02 4.000000e+00 0.000000e+00
2.960000e+02 4.000000e+00 0.000000e+00
3.000000e+02 4.000000e+00 0.000000e+00
3.040000e+02 4.000000e+00 0.000000e+00
3.080000e+02 4.000000e+00 0.000000e+00
3.120000e+02 4.000000e+00 0.000000e+00
3.160000e+02 4.000000e+00 0.000000e+00
3.200000e+02 4.000000e+00 0.000000e+00
3.240000e+02 4.000000e+00 0.000000e+00
3.280000e+02 4.000000e+00 0.000000e+00
3.320000e+02 4.000000e+00 0.000000e+00
3.360000e+02 4.000000e+00 0.000000e+00
3.400000e+02 4.000000e+00 0.000000e+00
3.440000e+02 4.000000e+00 0.000000e+00
3.480000e+02 4.000000e+00 0.000000e+00
3.520000e+02 4.000000e+00 0.000000e+00
3.560000e+02 4.000000e+00 0.000000e+00
3.600000e+02 4.000000e+00 0.000000e+00
3.640000e+02 4.000000e+00 0.000000e+00
3.680000e+02 4.000000e+00 0.000000e+00
[...]
<PointData>
<DataArray Name="T" type="Float64" NumberOfComponents="1" format="ascii">
1.261138e+03
1.261642e+03
1.263155e+03
1.265672e+03
1.269187e+03
1.273694e+03
1.279182e+03
1.285639e+03
1.293051e+03
1.301401e+03
1.310672e+03
1.320842e+03
1.331889e+03
1.343790e+03
1.356519e+03
1.370047e+03
1.384345e+03
1.399383e+03
1.415129e+03
1.431548e+03
1.448605e+03
1.466265e+03
1.484488e+03
1.503235e+03
1.522463e+03
1.542122e+03
1.559453e+03
1.577116e+03
1.595065e+03
1.613257e+03
1.631655e+03
1.650219e+03
1.668915e+03
1.687706e+03
1.706555e+03
1.725428e+03
1.744289e+03
1.763104e+03
1.781838e+03
1.800458e+03
1.818932e+03
1.837227e+03
1.855312e+03
1.873158e+03
1.890735e+03
1.908015e+03
1.924971e+03
1.941576e+03
1.957806e+03
1.973636e+03
1.989043e+03
2.004007e+03
2.018505e+03
2.032518e+03
2.046028e+03
2.059018e+03
2.071469e+03
2.083369e+03
2.094701e+03
2.105452e+03
2.115611e+03
2.125166e+03
2.134105e+03
2.142419e+03
2.150101e+03
2.157140e+03
2.163531e+03
2.169267e+03
2.174342e+03
2.178752e+03
2.182491e+03
2.185557e+03
2.187947e+03
2.189658e+03
2.190689e+03
2.191039e+03
2.190708e+03
2.189695e+03
2.188002e+03
2.185631e+03
2.182583e+03
2.178862e+03
2.174471e+03
2.169414e+03
2.163696e+03
2.157323e+03
2.150302e+03
2.142639e+03
2.134343e+03
2.125422e+03
2.115886e+03
2.105745e+03
2.095011e+03
2.083697e+03
2.071816e+03
2.059382e+03
2.046410e+03
2.032918e+03
2.018922e+03
2.004441e+03
1.989494e+03
1.974103e+03
1.958290e+03
1.942076e+03
1.925487e+03
1.908547e+03
1.891282e+03
1.873720e+03
1.855888e+03
1.837817e+03
1.819535e+03
1.801075e+03
1.782467e+03
1.763745e+03
1.744943e+03
1.726093e+03
1.707230e+03
1.688391e+03
1.669610e+03
1.650924e+03
1.632368e+03
1.613979e+03
1.595793e+03
1.577852e+03
1.560195e+03
1.542870e+03
1.523217e+03
1.503996e+03
1.485254e+03
1.467036e+03
1.449381e+03
1.432328e+03
1.415912e+03
1.400171e+03
1.385135e+03
1.370840e+03
1.357314e+03
1.344588e+03
1.332689e+03
1.321643e+03
1.311474e+03
1.302205e+03
1.293856e+03
1.286445e+03
1.279989e+03
1.274502e+03
1.269995e+03
1.266480e+03
1.263963e+03
1.262451e+03
1.261947e+03
1.260954e+03
1.261458e+03
1.262970e+03
1.265486e+03
1.269001e+03
1.273507e+03
1.278993e+03
1.285449e+03
1.292859e+03
1.301207e+03
1.310475e+03
1.320642e+03
1.331687e+03
1.343585e+03
1.356310e+03
1.369835e+03
1.384130e+03
1.399164e+03
1.414906e+03
1.431321e+03
1.448374e+03
1.466030e+03
1.484250e+03
1.502995e+03
1.522222e+03
1.541883e+03
1.559216e+03
1.576879e+03
1.594827e+03
1.613017e+03
1.631410e+03
1.649971e+03
1.668662e+03
1.687448e+03
1.706294e+03
1.725163e+03
1.744020e+03
1.762831e+03
1.781561e+03
1.800178e+03
1.818648e+03
1.836939e+03
1.855021e+03
1.872864e+03
1.890438e+03
1.907714e+03
1.924667e+03
1.941269e+03
1.957496e+03
1.973323e+03
1.988729e+03
2.003689e+03
2.018185e+03
2.032196e+03
2.045704e+03
2.058691e+03
2.071141e+03
2.083039e+03
2.094369e+03
2.105119e+03
2.115277e+03
2.124829e+03
2.133768e+03
2.142081e+03
2.149761e+03
2.156800e+03
2.163190e+03
2.168925e+03
2.174000e+03
2.178408e+03
2.182147e+03
2.185213e+03
2.187603e+03
2.189313e+03
2.190344e+03
2.190694e+03
2.190363e+03
2.189350e+03
2.187657e+03
2.185286e+03
2.182239e+03
2.178518e+03
2.174128e+03
2.169072e+03
2.163355e+03
2.156983e+03
2.149963e+03
2.142301e+03
2.134006e+03
2.125086e+03
2.115551e+03
2.105412e+03
2.094680e+03
2.083367e+03
2.071488e+03
2.059056e+03
2.046086e+03
2.032595e+03
2.018602e+03
2.004123e+03
1.989179e+03
1.973791e+03
1.957980e+03
1.941769e+03
1.925183e+03
1.908246e+03
1.890984e+03
1.873425e+03
1.855597e+03
1.837529e+03
1.819251e+03
1.800794e+03
1.782190e+03
1.763472e+03
1.744673e+03
1.725827e+03
1.706969e+03
1.688134e+03
1.669357e+03
1.650675e+03
1.632123e+03
1.613738e+03
1.595555e+03
1.577615e+03
1.559958e+03
1.542631e+03
1.522976e+03
1.503755e+03
1.485016e+03
1.466801e+03
1.449150e+03
1.432100e+03
1.415689e+03
1.399951e+03
1.384919e+03
1.370627e+03
1.357105e+03
1.344382e+03
1.332486e+03
1.321443e+03
1.311277e+03
1.302010e+03
1.293663e+03
1.286254e+03
1.279800e+03
1.274314e+03
1.269809e+03
1.266294e+03
1.263778e+03
1.262266e+03
1.261762e+03
1.260402e+03
1.260906e+03
1.262417e+03
1.264931e+03
1.268443e+03
1.272945e+03
1.278427e+03
1.284878e+03
1.292282e+03
1.300623e+03
1.309884e+03
1.320044e+03
1.331080e+03
1.342969e+03
1.355684e+03
1.369199e+03
1.383483e+03
1.398507e+03
1.414237e+03
1.430640e+03
1.447682e+03
1.465325e+03
1.483534e+03
1.502271e+03
1.521497e+03
1.541165e+03
1.558506e+03
1.576173e+03
1.594116e+03
1.612296e+03
1.630677e+03
1.649224e+03
1.667903e+03
1.686677e+03
1.705511e+03
1.724368e+03
1.743213e+03
1.762013e+03
1.780732e+03
1.799337e+03
1.817796e+03
1.836077e+03
1.854149e+03
1.871981e+03
1.889545e+03
1.906813e+03
1.923756e+03
1.940350e+03
1.956568e+03
1.972387e+03
1.987784e+03
2.002738e+03
2.017226e+03
2.031231e+03
2.044732e+03
2.057713e+03
2.070157e+03
2.082050e+03
2.093375e+03
2.104120e+03
2.114273e+03
2.123822e+03
2.132756e+03
2.141066e+03
2.148743e+03
2.155779e+03
2.162166e+03
2.167899e+03
2.172971e+03
2.177379e+03
2.181116e+03
2.184181e+03
2.186569e+03
2.188279e+03
2.189310e+03
2.189659e+03
2.189328e+03
2.188316e+03
2.186624e+03
2.184254e+03
2.181208e+03
2.177489e+03
2.173100e+03
2.168045e+03
2.162331e+03
2.155962e+03
2.148944e+03
2.141286e+03
2.132994e+03
2.124078e+03
2.114547e+03
2.104412e+03
2.093685e+03
2.082378e+03
2.070503e+03
2.058077e+03
2.045114e+03
2.031629e+03
2.017642e+03
2.003171e+03
1.988234e+03
1.972854e+03
1.957051e+03
1.940849e+03
1.924271e+03
1.907343e+03
1.890091e+03
1.872542e+03
1.854724e+03
1.836666e+03
1.818399e+03
1.799953e+03
1.781360e+03
1.762653e+03
1.743866e+03
1.725031e+03
1.706185e+03
1.687362e+03
1.668597e+03
1.649928e+03
1.631388e+03
1.613016e+03
1.594844e+03
1.576908e+03
1.559247e+03
1.541912e+03
1.522251e+03
1.503030e+03
1.484299e+03
1.466095e+03
1.448456e+03
1.431419e+03
1.415019e+03
1.399292e+03
1.384272e+03
1.369990e+03
1.356478e+03
1.343765e+03
1.331878e+03
1.320844e+03
1.310685e+03
1.301426e+03
1.293085e+03
1.285682e+03
1.279233e+03
1.273751e+03
1.269249e+03
1.265738e+03
1.263224e+03
1.261713e+03
1.261209e+03
1.259483e+03
1.259987e+03
1.261495e+03
1.264006e+03
1.267514e+03
1.272010e+03
1.277485e+03
1.283927e+03
1.291321e+03
1.299652e+03
1.308901e+03
1.319047e+03
1.330070e+03
1.341943e+03
1.354643e+03
1.368140e+03
1.382407e+03
1.397412e+03
1.413123e+03
1.429507e+03
1.446528e+03
1.464151e+03
1.482340e+03
1.501057e+03
1.520279e+03
1.539966e+03
1.557332e+03
1.575010e+03
1.592940e+03
1.611096e+03
1.629455e+03
1.647982e+03
1.666640e+03
1.685394e+03
1.704207e+03
1.723044e+03
1.741870e+03
1.760650e+03
1.779350e+03
1.797937e+03
1.816378e+03
1.834642e+03
1.852696e+03
1.870512e+03
1.888059e+03
1.905311e+03
1.922239e+03
1.938818e+03
1.955022e+03
1.970828e+03
1.986212e+03
2.001153e+03
2.015630e+03
2.029623e+03
2.043113e+03
2.056084e+03
2.068519e+03
2.080402e+03
2.091719e+03
2.102456e+03
2.112601e+03
2.122143e+03
2.131071e+03
2.139375e+03
2.147047e+03
2.154078e+03
2.160461e+03
2.166190e+03
2.171259e+03
2.175663e+03
2.179398e+03
2.182461e+03
2.184848e+03
2.186557e+03
2.187587e+03
2.187936e+03
2.187605e+03
2.186593e+03
2.184903e+03
2.182534e+03
2.179490e+03
2.175773e+03
2.171387e+03
2.166336e+03
2.160625e+03
2.154260e+03
2.147248e+03
2.139594e+03
2.131308e+03
2.122399e+03
2.112875e+03
2.102748e+03
2.092028e+03
2.080729e+03
2.068864e+03
2.056447e+03
2.043494e+03
2.030020e+03
2.016045e+03
2.001585e+03
1.986661e+03
1.971293e+03
1.955504e+03
1.939316e+03
1.922753e+03
1.905840e+03
1.888604e+03
1.871071e+03
1.853270e+03
1.835229e+03
1.816979e+03
1.798552e+03
1.779977e+03
1.761289e+03
1.742521e+03
1.723706e+03
1.704880e+03
1.686076e+03
1.667332e+03
1.648683e+03
1.630166e+03
1.611815e+03
1.593666e+03
1.575742e+03
1.558071e+03
1.540711e+03
1.521030e+03
1.501815e+03
1.483103e+03
1.464919e+03
1.447301e+03
1.430283e+03
1.413904e+03
1.398196e+03
1.383194e+03
1.368930e+03
1.355435e+03
1.342738e+03
1.330866e+03
1.319845e+03
1.309700e+03
1.300453e+03
1.292123e+03
1.284729e+03
1.278288e+03
1.272814e+03
1.268318e+03
1.264811e+03
1.262300e+03
1.260792e+03
1.260289e+03
1.258200e+03
1.258702e+03
1.260208e+03
1.262714e+03
1.266215e+03
1.270703e+03
1.276168e+03
1.282598e+03
1.289979e+03
1.298295e+03
1.307527e+03
1.317655e+03
1.328657e+03
1.340510e+03
1.353187e+03
1.366661e+03
1.380903e+03
1.395882e+03
1.411567e+03
1.427923e+03
1.444916e+03
1.462510e+03
1.480668e+03
1.499352e+03
1.518527e+03
1.538256e+03
1.555735e+03
1.573420e+03
1.591298e+03
1.609420e+03
1.627747e+03
1.646244e+03
1.664873e+03
1.683598e+03
1.702384e+03
1.721193e+03
1.739992e+03
1.758745e+03
1.777419e+03
1.795980e+03
1.814396e+03
1.832634e+03
1.850665e+03
1.868457e+03
1.885982e+03
1.903211e+03
1.920118e+03
1.936676e+03
1.952860e+03
1.968647e+03
1.984013e+03
1.998936e+03
2.013396e+03
2.027373e+03
2.040849e+03
2.053806e+03
2.066227e+03
2.078097e+03
2.089402e+03
2.100128e+03
2.110263e+03
2.119796e+03
2.128715e+03
2.137010e+03
2.144675e+03
2.151699e+03
2.158076e+03
2.163800e+03
2.168864e+03
2.173264e+03
2.176995e+03
2.180055e+03
2.182440e+03
2.184147e+03
2.185176e+03
2.185525e+03
2.185194e+03
2.184184e+03
2.182494e+03
2.180128e+03
2.177086e+03
2.173373e+03
2.168991e+03
2.163945e+03
2.158240e+03
2.151881e+03
2.144875e+03
2.137229e+03
2.128951e+03
2.120050e+03
2.110536e+03
2.100419e+03
2.089711e+03
2.078424e+03
2.066571e+03
2.054167e+03
2.041228e+03
2.027770e+03
2.013810e+03
1.999367e+03
1.984460e+03
1.969111e+03
1.953341e+03
1.937172e+03
1.920630e+03
1.903739e+03
1.886524e+03
1.869014e+03
1.851236e+03
1.833220e+03
1.814995e+03
1.796592e+03
1.778044e+03
1.759382e+03
1.740641e+03
1.721853e+03
1.703054e+03
1.684279e+03
1.665563e+03
1.646943e+03
1.628455e+03
1.610136e+03
1.592022e+03
1.574150e+03
1.556472e+03
1.538999e+03
1.519277e+03
1.500108e+03
1.481428e+03
1.463275e+03
1.445686e+03
1.428697e+03
1.412344e+03
1.396663e+03
1.381687e+03
1.367448e+03
1.353977e+03
1.341302e+03
1.329451e+03
1.318451e+03
1.308324e+03
1.299093e+03
1.290778e+03
1.283398e+03
1.276969e+03
1.271505e+03
1.267017e+03
1.263517e+03
1.261011e+03
1.259505e+03
1.259002e+03
1.256554e+03
1.257055e+03
1.258557e+03
1.261058e+03
1.264550e+03
1.269027e+03
1.274480e+03
1.280895e+03
1.288258e+03
1.296554e+03
1.305765e+03
1.315870e+03
1.326846e+03
1.338672e+03
1.351320e+03
1.364763e+03
1.378974e+03
1.393920e+03
1.409570e+03
1.425890e+03
1.442847e+03
1.460404e+03
1.478523e+03
1.497163e+03
1.516279e+03
1.535736e+03
1.553941e+03
1.571367e+03
1.589188e+03
1.607265e+03
1.625553e+03
1.644013e+03
1.662605e+03
1.681294e+03
1.700044e+03
1.718818e+03
1.737581e+03
1.756300e+03
1.774940e+03
1.793468e+03
1.811851e+03
1.830057e+03
1.848057e+03
1.865819e+03
1.883314e+03
1.900515e+03
1.917395e+03
1.933926e+03
1.950085e+03
1.965847e+03
1.981189e+03
1.996090e+03
2.010529e+03
2.024486e+03
2.037942e+03
2.050880e+03
2.063284e+03
2.075138e+03
2.086427e+03
2.097139e+03
2.107261e+03
2.116781e+03
2.125688e+03
2.133973e+03
2.141628e+03
2.148643e+03
2.155013e+03
2.160729e+03
2.165787e+03
2.170182e+03
2.173909e+03
2.176965e+03
2.179347e+03
2.181052e+03
2.182080e+03
2.182429e+03
2.182098e+03
2.181089e+03
2.179401e+03
2.177038e+03
2.174000e+03
2.170291e+03
2.165914e+03
2.160874e+03
2.155176e+03
2.148825e+03
2.141827e+03
2.134191e+03
2.125924e+03
2.117034e+03
2.107532e+03
2.097428e+03
2.086734e+03
2.075463e+03
2.063626e+03
2.051240e+03
2.038319e+03
2.024880e+03
2.010941e+03
1.996519e+03
1.981635e+03
1.966309e+03
1.950563e+03
1.934421e+03
1.917905e+03
1.901041e+03
1.883855e+03
1.866374e+03
1.848626e+03
1.830641e+03
1.812448e+03
1.794077e+03
1.775562e+03
1.756934e+03
1.738227e+03
1.719475e+03
1.700711e+03
1.681972e+03
1.663293e+03
1.644709e+03
1.626258e+03
1.607978e+03
1.589908e+03
1.572094e+03
1.554675e+03
1.536476e+03
1.517026e+03
1.497915e+03
1.479280e+03
1.461166e+03
1.443614e+03
1.426661e+03
1.410344e+03
1.394698e+03
1.379755e+03
1.365547e+03
1.352106e+03
1.339460e+03
1.327637e+03
1.316661e+03
1.306558e+03
1.297349e+03
1.289054e+03
1.281691e+03
1.275277e+03
1.269826e+03
1.265349e+03
1.261857e+03
1.259357e+03
1.257854e+03
1.257353e+03
1.254549e+03
1.255048e+03
1.256546e+03
1.259039e+03
1.262522e+03
1.266986e+03
1.272422e+03
1.278819e+03
1.286161e+03
1.294433e+03
1.303618e+03
1.313694e+03
1.324640e+03
1.336432e+03
1.349045e+03
1.362451e+03
1.376622e+03
1.391527e+03
1.407136e+03
1.423413e+03
1.440326e+03
1.457838e+03
1.475911e+03
1.494505e+03
1.513563e+03
1.533014e+03
1.551381e+03
1.568830e+03
1.586599e+03
1.604632e+03
1.622876e+03
1.641291e+03
1.659839e+03
1.678484e+03
1.697190e+03
1.715921e+03
1.734642e+03
1.753318e+03
1.771917e+03
1.790404e+03
1.808747e+03
1.826915e+03
1.844876e+03
1.862601e+03
1.880061e+03
1.897227e+03
1.914072e+03
1.930572e+03
1.946699e+03
1.962431e+03
1.977745e+03
1.992618e+03
2.007030e+03
2.020962e+03
2.034394e+03
2.047310e+03
2.059692e+03
2.071526e+03
2.082797e+03
2.093491e+03
2.103596e+03
2.113101e+03
2.121994e+03
2.130267e+03
2.137909e+03
2.144914e+03
2.151274e+03
2.156982e+03
2.162032e+03
2.166420e+03
2.170142e+03
2.173194e+03
2.175572e+03
2.177275e+03
2.178301e+03
2.178649e+03
2.178319e+03
2.177311e+03
2.175626e+03
2.173266e+03
2.170232e+03
2.166529e+03
2.162158e+03
2.157126e+03
2.151436e+03
2.145094e+03
2.138108e+03
2.130483e+03
2.122229e+03
2.113353e+03
2.103866e+03
2.093779e+03
2.083103e+03
2.071850e+03
2.060033e+03
2.047668e+03
2.034770e+03
2.021355e+03
2.007440e+03
1.993045e+03
1.978188e+03
1.962891e+03
1.947175e+03
1.931063e+03
1.914580e+03
1.897749e+03
1.880598e+03
1.863153e+03
1.845442e+03
1.827495e+03
1.809341e+03
1.791010e+03
1.772536e+03
1.753949e+03
1.735284e+03
1.716575e+03
1.697854e+03
1.679159e+03
1.660523e+03
1.641984e+03
1.623577e+03
1.605341e+03
1.587316e+03
1.569554e+03
1.552111e+03
1.533750e+03
1.514305e+03
1.495253e+03
1.476665e+03
1.458596e+03
1.441089e+03
1.424180e+03
1.407906e+03
1.392302e+03
1.377399e+03
1.363231e+03
1.349827e+03
1.337216e+03
1.325426e+03
1.314482e+03
1.304407e+03
1.295224e+03
1.286953e+03
1.279611e+03
1.273216e+03
1.267780e+03
1.263316e+03
1.259834e+03
1.257341e+03
1.255844e+03
1.255344e+03
1.252188e+03
1.252686e+03
1.254179e+03
1.256663e+03
1.260134e+03
1.264583e+03
1.270000e+03
1.276375e+03
1.283692e+03
1.291937e+03
1.301090e+03
1.311132e+03
1.322041e+03
1.333794e+03
1.346365e+03
1.359728e+03
1.373853e+03
1.388710e+03
1.404268e+03
1.420495e+03
1.437355e+03
1.454814e+03
1.472836e+03
1.491382e+03
1.510419e+03
1.529897e+03
1.548313e+03
1.565787e+03
1.583537e+03
1.601524e+03
1.619719e+03
1.638083e+03
1.656579e+03
1.675173e+03
1.693827e+03
1.712506e+03
1.731177e+03
1.749804e+03
1.768353e+03
1.786792e+03
1.805088e+03
1.823209e+03
1.841126e+03
1.858807e+03
1.876224e+03
1.893349e+03
1.910155e+03
1.926616e+03
1.942706e+03
1.958403e+03
1.973682e+03
1.988523e+03
2.002904e+03
2.016806e+03
2.030210e+03
2.043099e+03
2.055456e+03
2.067266e+03
2.078515e+03
2.089188e+03
2.099274e+03
2.108760e+03
2.117637e+03
2.125894e+03
2.133522e+03
2.140514e+03
2.146862e+03
2.152560e+03
2.157602e+03
2.161982e+03
2.165698e+03
2.168744e+03
2.171118e+03
2.172818e+03
2.173842e+03
2.174189e+03
2.173860e+03
2.172854e+03
2.171172e+03
2.168815e+03
2.165787e+03
2.162090e+03
2.157727e+03
2.152704e+03
2.147024e+03
2.140694e+03
2.133719e+03
2.126109e+03
2.117870e+03
2.109011e+03
2.099542e+03
2.089474e+03
2.078818e+03
2.067588e+03
2.055795e+03
2.043455e+03
2.030583e+03
2.017196e+03
2.003311e+03
1.988947e+03
1.974123e+03
1.958860e+03
1.943179e+03
1.927105e+03
1.910659e+03
1.893869e+03
1.876759e+03
1.859356e+03
1.841689e+03
1.823786e+03
1.805678e+03
1.787395e+03
1.768968e+03
1.750431e+03
1.731816e+03
1.713156e+03
1.694487e+03
1.675843e+03
1.657259e+03
1.638771e+03
1.620416e+03
1.602229e+03
1.584250e+03
1.566506e+03
1.549039e+03
1.530629e+03
1.511157e+03
1.492126e+03
1.473585e+03
1.455568e+03
1.438114e+03
1.421258e+03
1.405035e+03
1.389480e+03
1.374625e+03
1.360503e+03
1.347143e+03
1.334574e+03
1.322823e+03
1.311915e+03
1.301874e+03
1.292722e+03
1.284479e+03
1.277163e+03
1.270789e+03
1.265372e+03
1.260923e+03
1.257453e+03
1.254969e+03
1.253477e+03
1.252979e+03
1.249477e+03
1.249973e+03
1.251460e+03
1.253934e+03
1.257391e+03
1.261822e+03
1.267219e+03
1.273568e+03
1.280856e+03
1.289068e+03
1.298185e+03
1.308188e+03
1.319056e+03
1.330763e+03
1.343286e+03
1.356598e+03
1.370670e+03
1.385472e+03
1.400973e+03
1.417140e+03
1.433940e+03
1.451338e+03
1.469299e+03
1.487788e+03
1.506783e+03
1.526322e+03
1.544794e+03
1.562312e+03
1.580014e+03
1.597950e+03
1.616088e+03
1.634393e+03
1.652830e+03
1.671364e+03
1.689959e+03
1.708579e+03
1.727192e+03
1.745761e+03
1.764254e+03
1.782637e+03
1.800878e+03
1.818947e+03
1.836811e+03
1.854442e+03
1.871810e+03
1.888887e+03
1.905647e+03
1.922063e+03
1.938111e+03
1.953766e+03
1.969006e+03
1.983809e+03
1.998154e+03
2.012021e+03
2.025393e+03
2.038251e+03
2.050579e+03
2.062362e+03
2.073584e+03
2.084233e+03
2.094296e+03
2.103762e+03
2.112619e+03
2.120858e+03
2.128470e+03
2.135448e+03
2.141782e+03
2.147468e+03
2.152500e+03
2.156871e+03
2.160579e+03
2.163619e+03
2.165988e+03
2.167685e+03
2.168707e+03
2.169053e+03
2.168725e+03
2.167720e+03
2.166041e+03
2.163690e+03
2.160668e+03
2.156978e+03
2.152624e+03
2.147611e+03
2.141943e+03
2.135626e+03
2.128666e+03
2.121072e+03
2.112850e+03
2.104011e+03
2.094563e+03
2.084517e+03
2.073886e+03
2.062681e+03
2.050916e+03
2.038605e+03
2.025764e+03
2.012409e+03
1.998558e+03
1.984230e+03
1.969444e+03
1.954220e+03
1.938581e+03
1.922549e+03
1.906148e+03
1.889403e+03
1.872341e+03
1.854987e+03
1.837370e+03
1.819519e+03
1.801464e+03
1.783235e+03
1.764865e+03
1.746384e+03
1.727826e+03
1.709225e+03
1.690614e+03
1.672030e+03
1.653505e+03
1.635077e+03
1.616780e+03
1.598650e+03
1.580721e+03
1.563026e+03
1.545515e+03
1.527049e+03
1.507516e+03
1.488527e+03
1.470043e+03
1.452087e+03
1.434693e+03
1.417898e+03
1.401734e+03
1.386236e+03
1.371437e+03
1.357368e+03
1.344058e+03
1.331537e+03
1.319832e+03
1.308966e+03
1.298965e+03
1.289849e+03
1.281638e+03
1.274350e+03
1.268002e+03
1.262606e+03
1.258175e+03
1.254719e+03
1.252245e+03
1.250758e+03
1.250262e+03
1.246420e+03
1.246914e+03
1.248394e+03
1.250858e+03
1.254299e+03
1.258710e+03
1.264082e+03
1.270402e+03
1.277658e+03
1.285834e+03
1.294910e+03
1.304869e+03
1.315688e+03
1.327345e+03
1.339813e+03
1.353068e+03
1.367079e+03
1.381818e+03
1.397254e+03
1.413354e+03
1.430085e+03
1.447413e+03
1.465302e+03
1.483719e+03
1.502631e+03
1.522028e+03
1.541102e+03
1.558403e+03
1.576043e+03
1.593919e+03
1.611990e+03
1.630228e+03
1.648598e+03
1.667064e+03
1.685591e+03
1.704145e+03
1.722691e+03
1.741195e+03
1.759623e+03
1.777944e+03
1.796124e+03
1.814131e+03
1.831937e+03
1.849510e+03
1.866823e+03
1.883846e+03
1.900554e+03
1.916919e+03
1.932918e+03
1.948527e+03
1.963722e+03
1.978482e+03
1.992786e+03
2.006614e+03
2.019948e+03
2.032771e+03
2.045066e+03
2.056817e+03
2.068010e+03
2.078632e+03
2.088669e+03
2.098111e+03
2.106946e+03
2.115165e+03
2.122758e+03
2.129719e+03
2.136038e+03
2.141710e+03
2.146730e+03
2.151091e+03
2.154790e+03
2.157823e+03
2.160187e+03
2.161880e+03
2.162899e+03
2.163245e+03
2.162917e+03
2.161915e+03
2.160240e+03
2.157894e+03
2.154878e+03
2.151197e+03
2.146854e+03
2.141852e+03
2.136197e+03
2.129895e+03
2.122952e+03
2.115376e+03
2.107175e+03
2.098358e+03
2.088934e+03
2.078914e+03
2.068310e+03
2.057134e+03
2.045400e+03
2.033122e+03
2.020316e+03
2.006999e+03
1.993187e+03
1.978899e+03
1.964156e+03
1.948977e+03
1.933384e+03
1.917401e+03
1.901050e+03
1.884358e+03
1.867349e+03
1.850051e+03
1.832492e+03
1.814700e+03
1.796705e+03
1.778538e+03
1.760230e+03
1.741813e+03
1.723320e+03
1.704785e+03
1.686242e+03
1.667724e+03
1.649267e+03
1.630907e+03
1.612677e+03
1.594613e+03
1.576745e+03
1.559112e+03
1.541817e+03
1.522749e+03
1.503359e+03
1.484452e+03
1.466040e+03
1.448156e+03
1.430833e+03
1.414106e+03
1.398009e+03
1.382577e+03
1.367840e+03
1.353831e+03
1.340580e+03
1.328113e+03
1.316458e+03
1.305641e+03
1.295683e+03
1.286608e+03
1.278434e+03
1.271179e+03
1.264859e+03
1.259487e+03
1.255077e+03
1.251636e+03
1.249173e+03
1.247693e+03
1.247199e+03
1.243024e+03
1.243516e+03
1.244988e+03
1.247439e+03
1.250863e+03
1.255252e+03
1.260596e+03
1.266885e+03
1.274105e+03
1.282239e+03
1.291271e+03
1.301180e+03
1.311946e+03
1.323545e+03
1.335953e+03
1.349143e+03
1.363087e+03
1.377756e+03
1.393119e+03
1.409143e+03
1.425797e+03