<?xml version="1.0"?>
<VTKFile type="UnstructuredGrid" version="0.1">
<UnstructuredGrid>
<FieldData>
<DataArray Name="TIME" type="Float64" format="ascii" NumberOfTuples="1">
0.000000e+00
</DataArray>
</FieldData>
<FieldData>
<DataArray Name="CYCLE" type="Int32" format="ascii" NumberOfTuples="1">
0
</DataArray>
</FieldData>
<Piece NumberOfPoints="22801" NumberOfCells="22500">
<Points>
<DataArray NumberOfComponents="3" type="Float64" format="ascii">
0.000000e+00 0.000000e+00 0.000000e+00
4.000000e+00 0.000000e+00 0.000000e+00
8.000000e+00 0.000000e+00 0.000000e+00
1.200000e+01 0.000000e+00 0.000000e+00
1.600000e+01 0.000000e+00 0.000000e+00
2.000000e+01 0.000000e+00 0.000000e+00
2.400000e+01 0.000000e+00 0.000000e+00
2.800000e+01 0.000000e+00 0.000000e+00
3.200000e+01 0.000000e+00 0.000000e+00
3.600000e+01 0.000000e+00 0.000000e+00
4.000000e+01 0.000000e+00 0.000000e+00
4.400000e+01 0.000000e+00 0.000000e+00
4.800000e+01 0.000000e+00 0.000000e+00
5.200000e+01 0.000000e+00 0.000000e+00
5.600000e+01 0.000000e+00 0.000000e+00
6.000000e+01 0.000000e+00 0.000000e+00
6.400000e+01 0.000000e+00 0.000000e+00
6.800000e+01 0.000000e+00 0.000000e+00
7.200000e+01 0.000000e+00 0.000000e+00
7.600000e+01 0.000000e+00 0.000000e+00
8.000000e+01 0.000000e+00 0.000000e+00
8.400000e+01 0.000000e+00 0.000000e+00
8.800000e+01 0.000000e+00 0.000000e+00
9.200000e+01 0.000000e+00 0.000000e+00
9.600000e+01 0.000000e+00 0.000000e+00
1.000000e+02 0.000000e+00 0.000000e+00
1.040000e+02 0.000000e+00 0.000000e+00
1.080000e+02 0.000000e+00 0.000000e+00
1.120000e+02 0.000000e+00 0.000000e+00
1.160000e+02 0.000000e+00 0.000000e+00
1.200000e+02 0.000000e+00 0.000000e+00
1.240000e+02 0.000000e+00 0.000000e+00
1.280000e+02 0.000000e+00 0.000000e+00
1.320000e+02 0.000000e+00 0.000000e+00
1.360000e+02 0.000000e+00 0.000000e+00
1.400000e+02 0.000000e+00 0.000000e+00
1.440000e+02 0.000000e+00 0.000000e+00
1.480000e+02 0.000000e+00 0.000000e+00
1.520000e+02 0.000000e+00 0.000000e+00
1.560000e+02 0.000000e+00 0.000000e+00
1.600000e+02 0.000000e+00 0.000000e+00
1.640000e+02 0.000000e+00 0.000000e+00
1.680000e+02 0.000000e+00 0.000000e+00
1.720000e+02 0.000000e+00 0.000000e+00
1.760000e+02 0.000000e+00 0.000000e+00
1.800000e+02 0.000000e+00 0.000000e+00
1.840000e+02 0.000000e+00 0.000000e+00
1.880000e+02 0.000000e+00 0.000000e+00
1.920000e+02 0.000000e+00 0.000000e+00
1.960000e+02 0.000000e+00 0.000000e+00
2.000000e+02 0.000000e+00 0.000000e+00
2.040000e+02 0.000000e+00 0.000000e+00
2.080000e+02 0.000000e+00 0.000000e+00
2.120000e+02 0.000000e+00 0.000000e+00
2.160000e+02 0.000000e+00 0.000000e+00
2.200000e+02 0.000000e+00 0.000000e+00
2.240000e+02 0.000000e+00 0.000000e+00
2.280000e+02 0.000000e+00 0.000000e+00
2.320000e+02 0.000000e+00 0.000000e+00
2.360000e+02 0.000000e+00 0.000000e+00
2.400000e+02 0.000000e+00 0.000000e+00
2.440000e+02 0.000000e+00 0.000000e+00
2.480000e+02 0.000000e+00 0.000000e+00
2.520000e+02 0.000000e+00 0.000000e+00
2.560000e+02 0.000000e+00 0.000000e+00
2.600000e+02 0.000000e+00 0.000000e+00
2.640000e+02 0.000000e+00 0.000000e+00
2.680000e+02 0.000000e+00 0.000000e+00
2.720000e+02 0.000000e+00 0.000000e+00
2.760000e+02 0.000000e+00 0.000000e+00
2.800000e+02 0.000000e+00 0.000000e+00
2.840000e+02 0.000000e+00 0.000000e+00
2.880000e+02 0.000000e+00 0.000000e+00
2.920000e+02 0.000000e+00 0.000000e+00
2.960000e+02 0.000000e+00 0.000000e+00
3.000000e+02 0.000000e+00 0.000000e+00
3.040000e+02 0.000000e+00 0.000000e+00
3.080000e+02 0.000000e+00 0.000000e+00
3.120000e+02 0.000000e+00 0.000000e+00
3.160000e+02 0.000000e+00 0.000000e+00
3.200000e+02 0.000000e+00 0.000000e+00
3.240000e+02 0.000000e+00 0.000000e+00
3.280000e+02 0.000000e+00 0.000000e+00
3.320000e+02 0.000000e+00 0.000000e+00
3.360000e+02 0.000000e+00 0.000000e+00
3.400000e+02 0.000000e+00 0.000000e+00
3.440000e+02 0.000000e+00 0.000000e+00
3.480000e+02 0.000000e+00 0.000000e+00
3.520000e+02 0.000000e+00 0.000000e+00
3.560000e+02 0.000000e+00 0.000000e+00
3.600000e+02 0.000000e+00 0.000000e+00
3.640000e+02 0.000000e+00 0.000000e+00
3.680000e+02 0.000000e+00 0.000000e+00
3.720000e+02 0.000000e+00 0.000000e+00
3.760000e+02 0.000000e+00 0.000000e+00
3.800000e+02 0.000000e+00 0.000000e+00
3.840000e+02 0.000000e+00 0.000000e+00
3.880000e+02 0.000000e+00 0.000000e+00
3.920000e+02 0.000000e+00 0.000000e+00
3.960000e+02 0.000000e+00 0.000000e+00
4.000000e+02 0.000000e+00 0.000000e+00
4.040000e+02 0.000000e+00 0.000000e+00
4.080000e+02 0.000000e+00 0.000000e+00
4.120000e+02 0.000000e+00 0.000000e+00
4.160000e+02 0.000000e+00 0.000000e+00
4.200000e+02 0.000000e+00 0.000000e+00
4.240000e+02 0.000000e+00 0.000000e+00
4.280000e+02 0.000000e+00 0.000000e+00
4.320000e+02 0.000000e+00 0.000000e+00
4.360000e+02 0.000000e+00 0.000000e+00
4.400000e+02 0.000000e+00 0.000000e+00
4.440000e+02 0.000000e+00 0.000000e+00
4.480000e+02 0.000000e+00 0.000000e+00
4.520000e+02 0.000000e+00 0.000000e+00
4.560000e+02 0.000000e+00 0.000000e+00
4.600000e+02 0.000000e+00 0.000000e+00
4.640000e+02 0.000000e+00 0.000000e+00
4.680000e+02 0.000000e+00 0.000000e+00
4.720000e+02 0.000000e+00 0.000000e+00
4.760000e+02 0.000000e+00 0.000000e+00
4.800000e+02 0.000000e+00 0.000000e+00
4.840000e+02 0.000000e+00 0.000000e+00
4.880000e+02 0.000000e+00 0.000000e+00
4.920000e+02 0.000000e+00 0.000000e+00
4.960000e+02 0.000000e+00 0.000000e+00
5.000000e+02 0.000000e+00 0.000000e+00
5.040000e+02 0.000000e+00 0.000000e+00
5.080000e+02 0.000000e+00 0.000000e+00
5.120000e+02 0.000000e+00 0.000000e+00
5.160000e+02 0.000000e+00 0.000000e+00
5.200000e+02 0.000000e+00 0.000000e+00
5.240000e+02 0.000000e+00 0.000000e+00
5.280000e+02 0.000000e+00 0.000000e+00
5.320000e+02 0.000000e+00 0.000000e+00
5.360000e+02 0.000000e+00 0.000000e+00
5.400000e+02 0.000000e+00 0.000000e+00
5.440000e+02 0.000000e+00 0.000000e+00
5.480000e+02 0.000000e+00 0.000000e+00
5.520000e+02 0.000000e+00 0.000000e+00
5.560000e+02 0.000000e+00 0.000000e+00
5.600000e+02 0.000000e+00 0.000000e+00
5.640000e+02 0.000000e+00 0.000000e+00
5.680000e+02 0.000000e+00 0.000000e+00
5.720000e+02 0.000000e+00 0.000000e+00
5.760000e+02 0.000000e+00 0.000000e+00
5.800000e+02 0.000000e+00 0.000000e+00
5.840000e+02 0.000000e+00 0.000000e+00
5.880000e+02 0.000000e+00 0.000000e+00
5.920000e+02 0.000000e+00 0.000000e+00
5.960000e+02 0.000000e+00 0.000000e+00
6.000000e+02 0.000000e+00 0.000000e+00
0.000000e+00 4.000000e+00 0.000000e+00
4.000000e+00 4.000000e+00 0.000000e+00
8.000000e+00 4.000000e+00 0.000000e+00
1.200000e+01 4.000000e+00 0.000000e+00
1.600000e+01 4.000000e+00 0.000000e+00
2.000000e+01 4.000000e+00 0.000000e+00
2.400000e+01 4.000000e+00 0.000000e+00
2.800000e+01 4.000000e+00 0.000000e+00
3.200000e+01 4.000000e+00 0.000000e+00
3.600000e+01 4.000000e+00 0.000000e+00
4.000000e+01 4.000000e+00 0.000000e+00
4.400000e+01 4.000000e+00 0.000000e+00
4.800000e+01 4.000000e+00 0.000000e+00
5.200000e+01 4.000000e+00 0.000000e+00
5.600000e+01 4.000000e+00 0.000000e+00
6.000000e+01 4.000000e+00 0.000000e+00
6.400000e+01 4.000000e+00 0.000000e+00
6.800000e+01 4.000000e+00 0.000000e+00
7.200000e+01 4.000000e+00 0.000000e+00
7.600000e+01 4.000000e+00 0.000000e+00
8.000000e+01 4.000000e+00 0.000000e+00
8.400000e+01 4.000000e+00 0.000000e+00
8.800000e+01 4.000000e+00 0.000000e+00
9.200000e+01 4.000000e+00 0.000000e+00
9.600000e+01 4.000000e+00 0.000000e+00
1.000000e+02 4.000000e+00 0.000000e+00
1.040000e+02 4.000000e+00 0.000000e+00
1.080000e+02 4.000000e+00 0.000000e+00
1.120000e+02 4.000000e+00 0.000000e+00
1.160000e+02 4.000000e+00 0.000000e+00
1.200000e+02 4.000000e+00 0.000000e+00
1.240000e+02 4.000000e+00 0.000000e+00
1.280000e+02 4.000000e+00 0.000000e+00
1.320000e+02 4.000000e+00 0.000000e+00
1.360000e+02 4.000000e+00 0.000000e+00
1.400000e+02 4.000000e+00 0.000000e+00
1.440000e+02 4.000000e+00 0.000000e+00
1.480000e+02 4.000000e+00 0.000000e+00
1.520000e+02 4.000000e+00 0.000000e+00
1.560000e+02 4.000000e+00 0.000000e+00
1.600000e+02 4.000000e+00 0.000000e+00
1.640000e+02 4.000000e+00 0.000000e+00
1.680000e+02 4.000000e+00 0.000000e+00
1.720000e+02 4.000000e+00 0.000000e+00
1.760000e+02 4.000000e+00 0.000000e+00
1.800000e+02 4.000000e+00 0.000000e+00
1.840000e+02 4.000000e+00 0.000000e+00
1.880000e+02 4.000000e+00 0.000000e+00
1.920000e+02 4.000000e+00 0.000000e+00
1.960000e+02 4.000000e+00 0.000000e+00
2.000000e+02 4.000000e+00 0.000000e+00
2.040000e+02 4.000000e+00 0.000000e+00
2.080000e+02 4.000000e+00 0.000000e+00
2.120000e+02 4.000000e+00 0.000000e+00
2.160000e+02 4.000000e+00 0.000000e+00
2.200000e+02 4.000000e+00 0.000000e+00
2.240000e+02 4.000000e+00 0.000000e+00
2.280000e+02 4.000000e+00 0.000000e+00
2.320000e+02 4.000000e+00 0.000000e+00
2.360000e+02 4.000000e+00 0.000000e+00
2.400000e+02 4.000000e+00 0.000000e+00
2.440000e+02 4.000000e+00 0.000000e+00
2.480000e+02 4.000000e+00 0.000000e+00
2.520000e+02 4.000000e+00 0.000000e+00
2.560000e+02 4.000000e+00 0.000000e+00
2.600000e+02 4.000000e+00 0.000000e+00
2.640000e+02 4.000000e+00 0.000000e+00
2.680000e+02 4.000000e+00 0.000000e+00
2.720000e+02 4.000000e+00 0.000000e+00
2.760000e+02 4.000000e+00 0.000000e+00
2.800000e+02 4.000000e+00 0.000000e+00
2.840000e+02 4.000000e+00 0.000000e+00
2.880000e+02 4.000000e+00 0.000000e+00
2.920000e+02 4.000000e+00 0.000000e+00
2.960000e+02 4.000000e+00 0.000000e+00
3.000000e+02 4.000000e+00 0.000000e+00
3.040000e+02 4.000000e+00 0.000000e+00
3.080000e+02 4.000000e+00 0.000000e+00
3.120000e+02 4.000000e+00 0.000000e+00
3.160000e+02 4.000000e+00 0.000000e+00
3.200000e+02 4.000000e+00 0.000000e+00
3.240000e+02 4.000000e+00 0.000000e+00
3.280000e+02 4.000000e+00 0.000000e+00
3.320000e+02 4.000000e+00 0.000000e+00
3.360000e+02 4.000000e+00 0.000000e+00
3.400000e+02 4.000000e+00 0.000000e+00
3.440000e+02 4.000000e+00 0.000000e+00
3.480000e+02 4.000000e+00 0.000000e+00
3.520000e+02 4.000000e+00 0.000000e+00
3.560000e+02 4.000000e+00 0.000000e+00
3.600000e+02 4.000000e+00 0.000000e+00
3.640000e+02 4.000000e+00 0.000000e+00
3.680000e+02 4.000000e+00 0.000000e+00
[...]
<PointData>
<DataArray Name="T" type="Float64" NumberOfComponents="1" format="ascii">
1.258516e+03
1.259026e+03
1.260555e+03
1.263100e+03
1.266656e+03
1.271213e+03
1.276763e+03
1.283292e+03
1.290786e+03
1.299229e+03
1.308603e+03
1.318885e+03
1.330055e+03
1.342086e+03
1.354954e+03
1.368629e+03
1.383083e+03
1.398283e+03
1.414198e+03
1.430792e+03
1.448031e+03
1.465877e+03
1.484291e+03
1.503234e+03
1.522660e+03
1.542520e+03
1.560028e+03
1.577869e+03
1.595996e+03
1.614368e+03
1.632945e+03
1.651689e+03
1.670562e+03
1.689530e+03
1.708554e+03
1.727599e+03
1.746631e+03
1.765613e+03
1.784511e+03
1.803292e+03
1.821922e+03
1.840369e+03
1.858603e+03
1.876592e+03
1.894308e+03
1.911722e+03
1.928807e+03
1.945536e+03
1.961884e+03
1.977828e+03
1.993343e+03
2.008409e+03
2.023005e+03
2.037111e+03
2.050708e+03
2.063779e+03
2.076307e+03
2.088278e+03
2.099677e+03
2.110491e+03
2.120708e+03
2.130315e+03
2.139303e+03
2.147662e+03
2.155383e+03
2.162459e+03
2.168882e+03
2.174647e+03
2.179747e+03
2.184178e+03
2.187936e+03
2.191016e+03
2.193417e+03
2.195136e+03
2.196172e+03
2.196524e+03
2.196190e+03
2.195173e+03
2.193472e+03
2.191090e+03
2.188027e+03
2.184288e+03
2.179876e+03
2.174794e+03
2.169048e+03
2.162643e+03
2.155585e+03
2.147883e+03
2.139542e+03
2.130572e+03
2.120983e+03
2.110785e+03
2.099990e+03
2.088609e+03
2.076656e+03
2.064145e+03
2.051092e+03
2.037512e+03
2.023424e+03
2.008846e+03
1.993797e+03
1.978298e+03
1.962371e+03
1.946039e+03
1.929326e+03
1.912257e+03
1.894858e+03
1.877157e+03
1.859183e+03
1.840963e+03
1.822529e+03
1.803912e+03
1.785145e+03
1.766259e+03
1.747289e+03
1.728269e+03
1.709234e+03
1.690220e+03
1.671262e+03
1.652398e+03
1.633663e+03
1.615094e+03
1.596730e+03
1.578609e+03
1.560775e+03
1.543274e+03
1.523419e+03
1.503999e+03
1.485062e+03
1.466653e+03
1.448811e+03
1.431577e+03
1.414986e+03
1.399075e+03
1.383877e+03
1.369427e+03
1.355753e+03
1.342888e+03
1.330858e+03
1.319690e+03
1.309409e+03
1.300037e+03
1.291595e+03
1.284101e+03
1.277573e+03
1.272024e+03
1.267467e+03
1.263912e+03
1.261367e+03
1.259838e+03
1.259328e+03
1.258331e+03
1.258841e+03
1.260370e+03
1.262915e+03
1.266469e+03
1.271025e+03
1.276573e+03
1.283101e+03
1.290593e+03
1.299034e+03
1.308405e+03
1.318685e+03
1.329851e+03
1.341880e+03
1.354744e+03
1.368416e+03
1.382866e+03
1.398063e+03
1.413974e+03
1.430564e+03
1.447799e+03
1.465641e+03
1.484052e+03
1.502992e+03
1.522418e+03
1.542280e+03
1.559789e+03
1.577631e+03
1.595757e+03
1.614126e+03
1.632699e+03
1.651438e+03
1.670308e+03
1.689271e+03
1.708291e+03
1.727333e+03
1.746360e+03
1.765338e+03
1.784232e+03
1.803009e+03
1.821636e+03
1.840080e+03
1.858310e+03
1.876296e+03
1.894009e+03
1.911420e+03
1.928501e+03
1.945227e+03
1.961573e+03
1.977514e+03
1.993027e+03
2.008090e+03
2.022684e+03
2.036787e+03
2.050382e+03
2.063451e+03
2.075978e+03
2.087947e+03
2.099344e+03
2.110156e+03
2.120371e+03
2.129977e+03
2.138964e+03
2.147322e+03
2.155042e+03
2.162117e+03
2.168540e+03
2.174303e+03
2.179403e+03
2.183833e+03
2.187590e+03
2.190670e+03
2.193071e+03
2.194790e+03
2.195826e+03
2.196177e+03
2.195844e+03
2.194827e+03
2.193126e+03
2.190744e+03
2.187682e+03
2.183944e+03
2.179531e+03
2.174450e+03
2.168705e+03
2.162301e+03
2.155244e+03
2.147542e+03
2.139203e+03
2.130235e+03
2.120647e+03
2.110450e+03
2.099656e+03
2.088277e+03
2.076326e+03
2.063817e+03
2.050766e+03
2.037188e+03
2.023102e+03
2.008526e+03
1.993480e+03
1.977984e+03
1.962060e+03
1.945730e+03
1.929020e+03
1.911954e+03
1.894559e+03
1.876861e+03
1.858890e+03
1.840674e+03
1.822243e+03
1.803630e+03
1.784866e+03
1.765984e+03
1.747018e+03
1.728002e+03
1.708971e+03
1.689961e+03
1.671008e+03
1.652147e+03
1.633417e+03
1.614852e+03
1.596491e+03
1.578371e+03
1.560536e+03
1.543033e+03
1.523177e+03
1.503757e+03
1.484822e+03
1.466416e+03
1.448579e+03
1.431348e+03
1.414762e+03
1.398854e+03
1.383661e+03
1.369213e+03
1.355544e+03
1.342681e+03
1.330655e+03
1.319490e+03
1.309211e+03
1.299842e+03
1.291402e+03
1.283910e+03
1.277383e+03
1.271836e+03
1.267280e+03
1.263726e+03
1.261182e+03
1.259653e+03
1.259143e+03
1.257778e+03
1.258288e+03
1.259816e+03
1.262358e+03
1.265910e+03
1.270462e+03
1.276006e+03
1.282528e+03
1.290015e+03
1.298449e+03
1.307812e+03
1.318084e+03
1.329242e+03
1.341262e+03
1.354116e+03
1.367778e+03
1.382217e+03
1.397403e+03
1.413302e+03
1.429880e+03
1.447103e+03
1.464932e+03
1.483332e+03
1.502264e+03
1.521689e+03
1.541558e+03
1.559076e+03
1.576921e+03
1.595043e+03
1.613401e+03
1.631961e+03
1.650688e+03
1.669545e+03
1.688495e+03
1.707503e+03
1.726533e+03
1.745548e+03
1.764515e+03
1.783398e+03
1.802164e+03
1.820779e+03
1.839213e+03
1.857432e+03
1.875409e+03
1.893111e+03
1.910513e+03
1.927585e+03
1.944302e+03
1.960639e+03
1.976572e+03
1.992077e+03
2.007133e+03
2.021720e+03
2.035816e+03
2.049405e+03
2.062468e+03
2.074989e+03
2.086953e+03
2.098345e+03
2.109153e+03
2.119363e+03
2.128965e+03
2.137948e+03
2.146302e+03
2.154019e+03
2.161092e+03
2.167511e+03
2.173273e+03
2.178370e+03
2.182799e+03
2.186555e+03
2.189634e+03
2.192033e+03
2.193752e+03
2.194787e+03
2.195138e+03
2.194805e+03
2.193789e+03
2.192089e+03
2.189707e+03
2.186646e+03
2.182909e+03
2.178499e+03
2.173420e+03
2.167677e+03
2.161275e+03
2.154221e+03
2.146522e+03
2.138187e+03
2.129222e+03
2.119638e+03
2.109446e+03
2.098657e+03
2.087282e+03
2.075336e+03
2.062833e+03
2.049788e+03
2.036217e+03
2.022138e+03
2.007569e+03
1.992530e+03
1.977041e+03
1.961125e+03
1.944805e+03
1.928103e+03
1.911047e+03
1.893661e+03
1.875973e+03
1.858011e+03
1.839805e+03
1.821386e+03
1.802783e+03
1.784030e+03
1.765160e+03
1.746205e+03
1.727201e+03
1.708182e+03
1.689184e+03
1.670243e+03
1.651396e+03
1.632678e+03
1.614126e+03
1.595775e+03
1.577660e+03
1.559822e+03
1.542310e+03
1.522447e+03
1.503028e+03
1.484101e+03
1.465707e+03
1.447882e+03
1.430663e+03
1.414089e+03
1.398193e+03
1.383010e+03
1.368574e+03
1.354914e+03
1.342062e+03
1.330044e+03
1.318888e+03
1.308618e+03
1.299255e+03
1.290822e+03
1.283336e+03
1.276815e+03
1.271272e+03
1.266719e+03
1.263168e+03
1.260626e+03
1.259099e+03
1.258589e+03
1.256858e+03
1.257367e+03
1.258893e+03
1.261432e+03
1.264978e+03
1.269525e+03
1.275061e+03
1.281575e+03
1.289052e+03
1.297475e+03
1.306826e+03
1.317085e+03
1.328228e+03
1.340232e+03
1.353071e+03
1.366715e+03
1.381136e+03
1.396303e+03
1.412183e+03
1.428742e+03
1.445943e+03
1.463752e+03
1.482131e+03
1.501044e+03
1.520463e+03
1.540352e+03
1.557895e+03
1.575750e+03
1.593859e+03
1.612195e+03
1.630733e+03
1.649438e+03
1.668273e+03
1.687203e+03
1.706191e+03
1.725201e+03
1.744197e+03
1.763144e+03
1.782008e+03
1.800755e+03
1.819353e+03
1.837768e+03
1.855971e+03
1.873930e+03
1.891617e+03
1.909002e+03
1.926059e+03
1.942762e+03
1.959085e+03
1.975004e+03
1.990496e+03
2.005540e+03
2.020114e+03
2.034199e+03
2.047777e+03
2.060830e+03
2.073342e+03
2.085297e+03
2.096680e+03
2.107480e+03
2.117683e+03
2.127278e+03
2.136255e+03
2.144604e+03
2.152316e+03
2.159383e+03
2.165799e+03
2.171557e+03
2.176651e+03
2.181076e+03
2.184830e+03
2.187907e+03
2.190305e+03
2.192022e+03
2.193057e+03
2.193408e+03
2.193075e+03
2.192059e+03
2.190360e+03
2.187980e+03
2.184921e+03
2.181186e+03
2.176779e+03
2.171703e+03
2.165964e+03
2.159566e+03
2.152517e+03
2.144824e+03
2.136493e+03
2.127535e+03
2.117958e+03
2.107773e+03
2.096991e+03
2.085625e+03
2.073689e+03
2.061195e+03
2.048160e+03
2.034599e+03
2.020531e+03
2.005974e+03
1.990948e+03
1.975472e+03
1.959569e+03
1.943263e+03
1.926576e+03
1.909535e+03
1.892164e+03
1.874493e+03
1.856548e+03
1.838360e+03
1.819958e+03
1.801373e+03
1.782639e+03
1.763787e+03
1.744852e+03
1.725867e+03
1.706869e+03
1.687891e+03
1.668971e+03
1.650144e+03
1.631448e+03
1.612918e+03
1.594590e+03
1.576488e+03
1.558639e+03
1.541103e+03
1.521220e+03
1.501806e+03
1.482899e+03
1.464525e+03
1.446721e+03
1.429523e+03
1.412968e+03
1.397092e+03
1.381928e+03
1.367509e+03
1.353867e+03
1.341031e+03
1.329029e+03
1.317887e+03
1.307630e+03
1.298279e+03
1.289857e+03
1.282381e+03
1.275868e+03
1.270332e+03
1.265786e+03
1.262240e+03
1.259701e+03
1.258176e+03
1.257667e+03
1.255572e+03
1.256080e+03
1.257603e+03
1.260137e+03
1.263677e+03
1.268215e+03
1.273741e+03
1.280243e+03
1.287706e+03
1.296114e+03
1.305448e+03
1.315688e+03
1.326812e+03
1.338794e+03
1.351609e+03
1.365230e+03
1.379626e+03
1.394767e+03
1.410619e+03
1.427150e+03
1.444323e+03
1.462102e+03
1.480450e+03
1.499329e+03
1.518702e+03
1.538633e+03
1.556290e+03
1.574152e+03
1.592209e+03
1.610509e+03
1.629015e+03
1.647689e+03
1.666496e+03
1.685397e+03
1.704357e+03
1.723339e+03
1.742307e+03
1.761227e+03
1.780065e+03
1.798786e+03
1.817358e+03
1.835749e+03
1.853927e+03
1.871863e+03
1.889526e+03
1.906890e+03
1.923925e+03
1.940607e+03
1.956910e+03
1.972810e+03
1.988285e+03
2.003311e+03
2.017869e+03
2.031938e+03
2.045501e+03
2.058540e+03
2.071038e+03
2.082980e+03
2.094352e+03
2.105141e+03
2.115334e+03
2.124919e+03
2.133887e+03
2.142228e+03
2.149933e+03
2.156993e+03
2.163403e+03
2.169156e+03
2.174245e+03
2.178667e+03
2.182417e+03
2.185491e+03
2.187887e+03
2.189603e+03
2.190636e+03
2.190987e+03
2.190655e+03
2.189639e+03
2.187942e+03
2.185564e+03
2.182508e+03
2.178776e+03
2.174373e+03
2.169302e+03
2.163567e+03
2.157176e+03
2.150134e+03
2.142447e+03
2.134125e+03
2.125175e+03
2.115608e+03
2.105433e+03
2.094662e+03
2.083308e+03
2.071384e+03
2.058903e+03
2.045882e+03
2.032337e+03
2.018285e+03
2.003744e+03
1.988735e+03
1.973277e+03
1.957394e+03
1.941107e+03
1.924441e+03
1.907420e+03
1.890072e+03
1.872423e+03
1.854502e+03
1.836338e+03
1.817961e+03
1.799402e+03
1.780694e+03
1.761868e+03
1.742960e+03
1.724003e+03
1.705032e+03
1.686083e+03
1.667191e+03
1.648393e+03
1.629727e+03
1.611229e+03
1.592937e+03
1.574887e+03
1.557031e+03
1.539381e+03
1.519456e+03
1.500089e+03
1.481216e+03
1.462873e+03
1.445098e+03
1.427929e+03
1.411402e+03
1.395552e+03
1.380415e+03
1.366021e+03
1.352403e+03
1.339590e+03
1.327609e+03
1.316487e+03
1.306249e+03
1.296916e+03
1.288509e+03
1.281047e+03
1.274546e+03
1.269020e+03
1.264482e+03
1.260943e+03
1.258409e+03
1.256886e+03
1.256378e+03
1.253923e+03
1.254429e+03
1.255948e+03
1.258477e+03
1.262008e+03
1.266536e+03
1.272049e+03
1.278535e+03
1.285980e+03
1.294368e+03
1.303681e+03
1.313897e+03
1.324994e+03
1.336949e+03
1.349735e+03
1.363325e+03
1.377689e+03
1.392796e+03
1.408613e+03
1.425108e+03
1.442244e+03
1.459986e+03
1.478294e+03
1.497128e+03
1.516441e+03
1.536097e+03
1.554487e+03
1.572088e+03
1.590086e+03
1.608341e+03
1.626808e+03
1.645445e+03
1.664214e+03
1.683079e+03
1.702003e+03
1.720949e+03
1.739882e+03
1.758767e+03
1.777570e+03
1.796258e+03
1.814797e+03
1.833156e+03
1.851303e+03
1.869208e+03
1.886843e+03
1.904178e+03
1.921186e+03
1.937841e+03
1.954119e+03
1.969995e+03
1.985445e+03
2.000449e+03
2.014985e+03
2.029035e+03
2.042578e+03
2.055599e+03
2.068080e+03
2.080006e+03
2.091363e+03
2.102137e+03
2.112317e+03
2.121890e+03
2.130847e+03
2.139177e+03
2.146872e+03
2.153924e+03
2.160326e+03
2.166072e+03
2.171155e+03
2.175572e+03
2.179317e+03
2.182388e+03
2.184781e+03
2.186495e+03
2.187527e+03
2.187877e+03
2.187545e+03
2.186531e+03
2.184836e+03
2.182460e+03
2.179408e+03
2.175681e+03
2.171282e+03
2.166217e+03
2.160490e+03
2.154106e+03
2.147072e+03
2.139395e+03
2.131083e+03
2.122145e+03
2.112589e+03
2.102428e+03
2.091671e+03
2.080332e+03
2.068424e+03
2.055961e+03
2.042958e+03
2.029432e+03
2.015400e+03
2.000880e+03
1.985893e+03
1.970459e+03
1.954600e+03
1.938339e+03
1.921699e+03
1.904706e+03
1.887386e+03
1.869767e+03
1.851876e+03
1.833743e+03
1.815398e+03
1.796872e+03
1.778197e+03
1.759406e+03
1.740532e+03
1.721610e+03
1.702675e+03
1.683762e+03
1.664906e+03
1.646146e+03
1.627517e+03
1.609059e+03
1.590811e+03
1.572820e+03
1.555225e+03
1.536842e+03
1.517192e+03
1.497884e+03
1.479056e+03
1.460753e+03
1.443016e+03
1.425883e+03
1.409392e+03
1.393578e+03
1.378474e+03
1.364113e+03
1.350526e+03
1.337742e+03
1.325789e+03
1.314693e+03
1.304478e+03
1.295167e+03
1.286780e+03
1.279335e+03
1.272849e+03
1.267337e+03
1.262810e+03
1.259279e+03
1.256751e+03
1.255232e+03
1.254725e+03
1.251913e+03
1.252419e+03
1.253933e+03
1.256454e+03
1.259976e+03
1.264490e+03
1.269986e+03
1.276454e+03
1.283878e+03
1.292242e+03
1.301527e+03
1.311714e+03
1.322780e+03
1.334701e+03
1.347452e+03
1.361003e+03
1.375327e+03
1.390393e+03
1.406168e+03
1.422619e+03
1.439710e+03
1.457406e+03
1.475668e+03
1.494455e+03
1.513709e+03
1.533359e+03
1.551912e+03
1.569537e+03
1.587483e+03
1.605693e+03
1.624115e+03
1.642707e+03
1.661432e+03
1.680252e+03
1.699131e+03
1.718034e+03
1.736924e+03
1.755767e+03
1.774528e+03
1.793175e+03
1.811674e+03
1.829994e+03
1.848103e+03
1.865971e+03
1.883569e+03
1.900869e+03
1.917844e+03
1.934467e+03
1.950713e+03
1.966559e+03
1.981981e+03
1.996957e+03
2.011467e+03
2.025492e+03
2.039012e+03
2.052010e+03
2.064469e+03
2.076376e+03
2.087714e+03
2.098471e+03
2.108635e+03
2.118193e+03
2.127135e+03
2.135453e+03
2.143136e+03
2.150178e+03
2.156571e+03
2.162308e+03
2.167384e+03
2.171794e+03
2.175534e+03
2.178600e+03
2.180990e+03
2.182701e+03
2.183732e+03
2.184082e+03
2.183750e+03
2.182738e+03
2.181044e+03
2.178673e+03
2.175624e+03
2.171902e+03
2.167510e+03
2.162452e+03
2.156733e+03
2.150359e+03
2.143335e+03
2.135670e+03
2.127371e+03
2.118446e+03
2.108906e+03
2.098760e+03
2.088021e+03
2.076701e+03
2.064812e+03
2.052370e+03
2.039389e+03
2.025887e+03
2.011879e+03
1.997386e+03
1.982427e+03
1.967021e+03
1.951192e+03
1.934962e+03
1.918354e+03
1.901395e+03
1.884110e+03
1.866527e+03
1.848673e+03
1.830578e+03
1.812272e+03
1.793786e+03
1.775151e+03
1.756402e+03
1.737571e+03
1.718692e+03
1.699800e+03
1.680931e+03
1.662120e+03
1.643405e+03
1.624821e+03
1.606407e+03
1.588204e+03
1.570265e+03
1.552647e+03
1.534100e+03
1.514456e+03
1.495208e+03
1.476426e+03
1.458169e+03
1.440478e+03
1.423390e+03
1.406943e+03
1.391172e+03
1.376109e+03
1.361787e+03
1.348238e+03
1.335490e+03
1.323570e+03
1.312506e+03
1.302320e+03
1.293036e+03
1.284673e+03
1.277250e+03
1.270783e+03
1.265287e+03
1.260773e+03
1.257252e+03
1.254732e+03
1.253217e+03
1.252712e+03
1.249548e+03
1.250052e+03
1.251561e+03
1.254073e+03
1.257583e+03
1.262081e+03
1.267559e+03
1.274004e+03
1.281402e+03
1.289738e+03
1.298992e+03
1.309144e+03
1.320173e+03
1.332054e+03
1.344762e+03
1.358269e+03
1.372546e+03
1.387563e+03
1.403288e+03
1.419687e+03
1.436725e+03
1.454367e+03
1.472577e+03
1.491315e+03
1.510547e+03
1.530224e+03
1.548827e+03
1.566476e+03
1.584403e+03
1.602567e+03
1.620939e+03
1.639480e+03
1.658152e+03
1.676920e+03
1.695748e+03
1.714599e+03
1.733438e+03
1.752230e+03
1.770942e+03
1.789541e+03
1.807992e+03
1.826266e+03
1.844330e+03
1.862154e+03
1.879710e+03
1.896969e+03
1.913903e+03
1.930488e+03
1.946697e+03
1.962507e+03
1.977895e+03
1.992839e+03
2.007318e+03
2.021313e+03
2.034805e+03
2.047776e+03
2.060211e+03
2.072094e+03
2.083410e+03
2.094146e+03
2.104291e+03
2.113831e+03
2.122757e+03
2.131059e+03
2.138729e+03
2.145758e+03
2.152139e+03
2.157866e+03
2.162934e+03
2.167336e+03
2.171070e+03
2.174131e+03
2.176517e+03
2.178225e+03
2.179254e+03
2.179604e+03
2.179272e+03
2.178261e+03
2.176571e+03
2.174203e+03
2.171160e+03
2.167444e+03
2.163060e+03
2.158010e+03
2.152301e+03
2.145938e+03
2.138927e+03
2.131275e+03
2.122991e+03
2.114083e+03
2.104560e+03
2.094434e+03
2.083715e+03
2.072417e+03
2.060552e+03
2.048134e+03
2.035180e+03
2.021705e+03
2.007728e+03
1.993265e+03
1.978338e+03
1.962967e+03
1.947173e+03
1.930979e+03
1.914411e+03
1.897491e+03
1.880247e+03
1.862706e+03
1.844896e+03
1.826846e+03
1.808586e+03
1.790147e+03
1.771562e+03
1.752862e+03
1.734081e+03
1.715253e+03
1.696412e+03
1.677595e+03
1.658837e+03
1.640173e+03
1.621641e+03
1.603277e+03
1.585120e+03
1.567200e+03
1.549557e+03
1.530961e+03
1.511290e+03
1.492063e+03
1.473330e+03
1.455126e+03
1.437488e+03
1.420454e+03
1.404058e+03
1.388337e+03
1.373323e+03
1.359048e+03
1.345544e+03
1.332838e+03
1.320958e+03
1.309931e+03
1.299780e+03
1.290527e+03
1.282193e+03
1.274795e+03
1.268351e+03
1.262874e+03
1.258375e+03
1.254867e+03
1.252355e+03
1.250846e+03
1.250342e+03
1.246832e+03
1.247333e+03
1.248837e+03
1.251339e+03
1.254834e+03
1.259314e+03
1.264770e+03
1.271190e+03
1.278559e+03
1.286861e+03
1.296079e+03
1.306192e+03
1.317177e+03
1.329013e+03
1.341672e+03
1.355127e+03
1.369350e+03
1.384311e+03
1.399977e+03
1.416316e+03
1.433293e+03
1.450873e+03
1.469021e+03
1.487702e+03
1.506891e+03
1.526630e+03
1.545288e+03
1.562982e+03
1.580859e+03
1.598972e+03
1.617287e+03
1.635768e+03
1.654380e+03
1.673088e+03
1.691856e+03
1.710647e+03
1.729427e+03
1.748162e+03
1.766817e+03
1.785360e+03
1.803757e+03
1.821977e+03
1.839988e+03
1.857762e+03
1.875268e+03
1.892480e+03
1.909368e+03
1.925908e+03
1.942075e+03
1.957844e+03
1.973192e+03
1.988098e+03
2.002542e+03
2.016502e+03
2.029962e+03
2.042903e+03
2.055308e+03
2.067164e+03
2.078454e+03
2.089167e+03
2.099289e+03
2.108808e+03
2.117715e+03
2.126000e+03
2.133654e+03
2.140668e+03
2.147036e+03
2.152752e+03
2.157809e+03
2.162202e+03
2.165928e+03
2.168984e+03
2.171365e+03
2.173070e+03
2.174097e+03
2.174445e+03
2.174115e+03
2.173105e+03
2.171418e+03
2.169055e+03
2.166018e+03
2.162310e+03
2.157934e+03
2.152895e+03
2.147197e+03
2.140847e+03
2.133850e+03
2.126214e+03
2.117948e+03
2.109058e+03
2.099556e+03
2.089452e+03
2.078757e+03
2.067484e+03
2.055646e+03
2.043258e+03
2.030334e+03
2.016892e+03
2.002948e+03
1.988522e+03
1.973632e+03
1.958300e+03
1.942547e+03
1.926397e+03
1.909872e+03
1.892999e+03
1.875802e+03
1.858310e+03
1.840551e+03
1.822553e+03
1.804346e+03
1.785962e+03
1.767432e+03
1.748789e+03
1.730066e+03
1.711297e+03
1.692516e+03
1.673758e+03
1.655060e+03
1.636456e+03
1.617984e+03
1.599677e+03
1.581571e+03
1.563701e+03
1.546013e+03
1.527361e+03
1.507629e+03
1.488445e+03
1.469769e+03
1.451626e+03
1.434051e+03
1.417078e+03
1.400742e+03
1.385079e+03
1.370122e+03
1.355901e+03
1.342448e+03
1.329791e+03
1.317957e+03
1.306973e+03
1.296862e+03
1.287645e+03
1.279344e+03
1.271976e+03
1.265557e+03
1.260101e+03
1.255621e+03
1.252127e+03
1.249625e+03
1.248122e+03
1.247620e+03
1.243770e+03
1.244269e+03
1.245765e+03
1.248256e+03
1.251735e+03
1.256195e+03
1.261626e+03
1.268017e+03
1.275353e+03
1.283618e+03
1.292794e+03
1.302862e+03
1.313799e+03
1.325582e+03
1.338186e+03
1.351583e+03
1.365745e+03
1.380642e+03
1.396242e+03
1.412512e+03
1.429419e+03
1.446928e+03
1.465003e+03
1.483610e+03
1.502716e+03
1.522310e+03
1.541576e+03
1.559052e+03
1.576866e+03
1.594917e+03
1.613165e+03
1.631578e+03
1.650122e+03
1.668762e+03
1.687461e+03
1.706185e+03
1.724899e+03
1.743568e+03
1.762158e+03
1.780637e+03
1.798972e+03
1.817131e+03
1.835084e+03
1.852800e+03
1.870251e+03
1.887408e+03
1.904244e+03
1.920734e+03
1.936851e+03
1.952574e+03
1.967877e+03
1.982741e+03
1.997143e+03
2.011065e+03
2.024487e+03
2.037393e+03
2.049766e+03
2.061590e+03
2.072852e+03
2.083537e+03
2.093633e+03
2.103129e+03
2.112014e+03
2.120279e+03
2.127914e+03
2.134912e+03
2.141265e+03
2.146968e+03
2.152013e+03
2.156396e+03
2.160114e+03
2.163162e+03
2.165538e+03
2.167239e+03
2.168264e+03
2.168612e+03
2.168282e+03
2.167275e+03
2.165591e+03
2.163233e+03
2.160203e+03
2.156503e+03
2.152137e+03
2.147109e+03
2.141425e+03
2.135089e+03
2.128109e+03
2.120492e+03
2.112245e+03
2.103377e+03
2.093899e+03
2.083820e+03
2.073152e+03
2.061908e+03
2.050102e+03
2.037746e+03
2.024857e+03
2.011452e+03
1.997547e+03
1.983161e+03
1.968314e+03
1.953026e+03
1.937320e+03
1.921218e+03
1.904744e+03
1.887923e+03
1.870781e+03
1.853344e+03
1.835642e+03
1.817703e+03
1.799557e+03
1.781235e+03
1.762769e+03
1.744190e+03
1.725532e+03
1.706830e+03
1.688116e+03
1.669427e+03
1.650797e+03
1.632261e+03
1.613856e+03
1.595617e+03
1.577572e+03
1.559765e+03
1.542296e+03
1.523036e+03
1.503448e+03
1.484347e+03
1.465746e+03
1.447675e+03
1.430171e+03
1.413268e+03
1.397001e+03
1.381404e+03
1.366510e+03
1.352351e+03
1.338956e+03
1.326354e+03
1.314573e+03
1.303637e+03
1.293571e+03
1.284396e+03
1.276132e+03
1.268797e+03
1.262407e+03
1.256976e+03
1.252516e+03
1.249037e+03
1.246547e+03
1.245051e+03
1.244551e+03
1.240367e+03
1.240864e+03
1.242353e+03
1.244831e+03
1.248292e+03
1.252729e+03
1.258133e+03
1.264491e+03
1.271790e+03
1.280014e+03
1.289144e+03
1.299161e+03
1.310044e+03
1.321769e+03
1.334311e+03
1.347643e+03
1.361736e+03
1.376562e+03
1.392088e+03
1.408282e+03
1.425110e+03