<?xml version="1.0"?>
<VTKFile type="UnstructuredGrid" version="0.1">
<UnstructuredGrid>
<FieldData>
<DataArray Name="TIME" type="Float64" format="ascii" NumberOfTuples="1">
0.000000e+00
</DataArray>
</FieldData>
<FieldData>
<DataArray Name="CYCLE" type="Int32" format="ascii" NumberOfTuples="1">
0
</DataArray>
</FieldData>
<Piece NumberOfPoints="22801" NumberOfCells="22500">
<Points>
<DataArray NumberOfComponents="3" type="Float64" format="ascii">
0.000000e+00 0.000000e+00 0.000000e+00
4.000000e+00 0.000000e+00 0.000000e+00
8.000000e+00 0.000000e+00 0.000000e+00
1.200000e+01 0.000000e+00 0.000000e+00
1.600000e+01 0.000000e+00 0.000000e+00
2.000000e+01 0.000000e+00 0.000000e+00
2.400000e+01 0.000000e+00 0.000000e+00
2.800000e+01 0.000000e+00 0.000000e+00
3.200000e+01 0.000000e+00 0.000000e+00
3.600000e+01 0.000000e+00 0.000000e+00
4.000000e+01 0.000000e+00 0.000000e+00
4.400000e+01 0.000000e+00 0.000000e+00
4.800000e+01 0.000000e+00 0.000000e+00
5.200000e+01 0.000000e+00 0.000000e+00
5.600000e+01 0.000000e+00 0.000000e+00
6.000000e+01 0.000000e+00 0.000000e+00
6.400000e+01 0.000000e+00 0.000000e+00
6.800000e+01 0.000000e+00 0.000000e+00
7.200000e+01 0.000000e+00 0.000000e+00
7.600000e+01 0.000000e+00 0.000000e+00
8.000000e+01 0.000000e+00 0.000000e+00
8.400000e+01 0.000000e+00 0.000000e+00
8.800000e+01 0.000000e+00 0.000000e+00
9.200000e+01 0.000000e+00 0.000000e+00
9.600000e+01 0.000000e+00 0.000000e+00
1.000000e+02 0.000000e+00 0.000000e+00
1.040000e+02 0.000000e+00 0.000000e+00
1.080000e+02 0.000000e+00 0.000000e+00
1.120000e+02 0.000000e+00 0.000000e+00
1.160000e+02 0.000000e+00 0.000000e+00
1.200000e+02 0.000000e+00 0.000000e+00
1.240000e+02 0.000000e+00 0.000000e+00
1.280000e+02 0.000000e+00 0.000000e+00
1.320000e+02 0.000000e+00 0.000000e+00
1.360000e+02 0.000000e+00 0.000000e+00
1.400000e+02 0.000000e+00 0.000000e+00
1.440000e+02 0.000000e+00 0.000000e+00
1.480000e+02 0.000000e+00 0.000000e+00
1.520000e+02 0.000000e+00 0.000000e+00
1.560000e+02 0.000000e+00 0.000000e+00
1.600000e+02 0.000000e+00 0.000000e+00
1.640000e+02 0.000000e+00 0.000000e+00
1.680000e+02 0.000000e+00 0.000000e+00
1.720000e+02 0.000000e+00 0.000000e+00
1.760000e+02 0.000000e+00 0.000000e+00
1.800000e+02 0.000000e+00 0.000000e+00
1.840000e+02 0.000000e+00 0.000000e+00
1.880000e+02 0.000000e+00 0.000000e+00
1.920000e+02 0.000000e+00 0.000000e+00
1.960000e+02 0.000000e+00 0.000000e+00
2.000000e+02 0.000000e+00 0.000000e+00
2.040000e+02 0.000000e+00 0.000000e+00
2.080000e+02 0.000000e+00 0.000000e+00
2.120000e+02 0.000000e+00 0.000000e+00
2.160000e+02 0.000000e+00 0.000000e+00
2.200000e+02 0.000000e+00 0.000000e+00
2.240000e+02 0.000000e+00 0.000000e+00
2.280000e+02 0.000000e+00 0.000000e+00
2.320000e+02 0.000000e+00 0.000000e+00
2.360000e+02 0.000000e+00 0.000000e+00
2.400000e+02 0.000000e+00 0.000000e+00
2.440000e+02 0.000000e+00 0.000000e+00
2.480000e+02 0.000000e+00 0.000000e+00
2.520000e+02 0.000000e+00 0.000000e+00
2.560000e+02 0.000000e+00 0.000000e+00
2.600000e+02 0.000000e+00 0.000000e+00
2.640000e+02 0.000000e+00 0.000000e+00
2.680000e+02 0.000000e+00 0.000000e+00
2.720000e+02 0.000000e+00 0.000000e+00
2.760000e+02 0.000000e+00 0.000000e+00
2.800000e+02 0.000000e+00 0.000000e+00
2.840000e+02 0.000000e+00 0.000000e+00
2.880000e+02 0.000000e+00 0.000000e+00
2.920000e+02 0.000000e+00 0.000000e+00
2.960000e+02 0.000000e+00 0.000000e+00
3.000000e+02 0.000000e+00 0.000000e+00
3.040000e+02 0.000000e+00 0.000000e+00
3.080000e+02 0.000000e+00 0.000000e+00
3.120000e+02 0.000000e+00 0.000000e+00
3.160000e+02 0.000000e+00 0.000000e+00
3.200000e+02 0.000000e+00 0.000000e+00
3.240000e+02 0.000000e+00 0.000000e+00
3.280000e+02 0.000000e+00 0.000000e+00
3.320000e+02 0.000000e+00 0.000000e+00
3.360000e+02 0.000000e+00 0.000000e+00
3.400000e+02 0.000000e+00 0.000000e+00
3.440000e+02 0.000000e+00 0.000000e+00
3.480000e+02 0.000000e+00 0.000000e+00
3.520000e+02 0.000000e+00 0.000000e+00
3.560000e+02 0.000000e+00 0.000000e+00
3.600000e+02 0.000000e+00 0.000000e+00
3.640000e+02 0.000000e+00 0.000000e+00
3.680000e+02 0.000000e+00 0.000000e+00
3.720000e+02 0.000000e+00 0.000000e+00
3.760000e+02 0.000000e+00 0.000000e+00
3.800000e+02 0.000000e+00 0.000000e+00
3.840000e+02 0.000000e+00 0.000000e+00
3.880000e+02 0.000000e+00 0.000000e+00
3.920000e+02 0.000000e+00 0.000000e+00
3.960000e+02 0.000000e+00 0.000000e+00
4.000000e+02 0.000000e+00 0.000000e+00
4.040000e+02 0.000000e+00 0.000000e+00
4.080000e+02 0.000000e+00 0.000000e+00
4.120000e+02 0.000000e+00 0.000000e+00
4.160000e+02 0.000000e+00 0.000000e+00
4.200000e+02 0.000000e+00 0.000000e+00
4.240000e+02 0.000000e+00 0.000000e+00
4.280000e+02 0.000000e+00 0.000000e+00
4.320000e+02 0.000000e+00 0.000000e+00
4.360000e+02 0.000000e+00 0.000000e+00
4.400000e+02 0.000000e+00 0.000000e+00
4.440000e+02 0.000000e+00 0.000000e+00
4.480000e+02 0.000000e+00 0.000000e+00
4.520000e+02 0.000000e+00 0.000000e+00
4.560000e+02 0.000000e+00 0.000000e+00
4.600000e+02 0.000000e+00 0.000000e+00
4.640000e+02 0.000000e+00 0.000000e+00
4.680000e+02 0.000000e+00 0.000000e+00
4.720000e+02 0.000000e+00 0.000000e+00
4.760000e+02 0.000000e+00 0.000000e+00
4.800000e+02 0.000000e+00 0.000000e+00
4.840000e+02 0.000000e+00 0.000000e+00
4.880000e+02 0.000000e+00 0.000000e+00
4.920000e+02 0.000000e+00 0.000000e+00
4.960000e+02 0.000000e+00 0.000000e+00
5.000000e+02 0.000000e+00 0.000000e+00
5.040000e+02 0.000000e+00 0.000000e+00
5.080000e+02 0.000000e+00 0.000000e+00
5.120000e+02 0.000000e+00 0.000000e+00
5.160000e+02 0.000000e+00 0.000000e+00
5.200000e+02 0.000000e+00 0.000000e+00
5.240000e+02 0.000000e+00 0.000000e+00
5.280000e+02 0.000000e+00 0.000000e+00
5.320000e+02 0.000000e+00 0.000000e+00
5.360000e+02 0.000000e+00 0.000000e+00
5.400000e+02 0.000000e+00 0.000000e+00
5.440000e+02 0.000000e+00 0.000000e+00
5.480000e+02 0.000000e+00 0.000000e+00
5.520000e+02 0.000000e+00 0.000000e+00
5.560000e+02 0.000000e+00 0.000000e+00
5.600000e+02 0.000000e+00 0.000000e+00
5.640000e+02 0.000000e+00 0.000000e+00
5.680000e+02 0.000000e+00 0.000000e+00
5.720000e+02 0.000000e+00 0.000000e+00
5.760000e+02 0.000000e+00 0.000000e+00
5.800000e+02 0.000000e+00 0.000000e+00
5.840000e+02 0.000000e+00 0.000000e+00
5.880000e+02 0.000000e+00 0.000000e+00
5.920000e+02 0.000000e+00 0.000000e+00
5.960000e+02 0.000000e+00 0.000000e+00
6.000000e+02 0.000000e+00 0.000000e+00
0.000000e+00 4.000000e+00 0.000000e+00
4.000000e+00 4.000000e+00 0.000000e+00
8.000000e+00 4.000000e+00 0.000000e+00
1.200000e+01 4.000000e+00 0.000000e+00
1.600000e+01 4.000000e+00 0.000000e+00
2.000000e+01 4.000000e+00 0.000000e+00
2.400000e+01 4.000000e+00 0.000000e+00
2.800000e+01 4.000000e+00 0.000000e+00
3.200000e+01 4.000000e+00 0.000000e+00
3.600000e+01 4.000000e+00 0.000000e+00
4.000000e+01 4.000000e+00 0.000000e+00
4.400000e+01 4.000000e+00 0.000000e+00
4.800000e+01 4.000000e+00 0.000000e+00
5.200000e+01 4.000000e+00 0.000000e+00
5.600000e+01 4.000000e+00 0.000000e+00
6.000000e+01 4.000000e+00 0.000000e+00
6.400000e+01 4.000000e+00 0.000000e+00
6.800000e+01 4.000000e+00 0.000000e+00
7.200000e+01 4.000000e+00 0.000000e+00
7.600000e+01 4.000000e+00 0.000000e+00
8.000000e+01 4.000000e+00 0.000000e+00
8.400000e+01 4.000000e+00 0.000000e+00
8.800000e+01 4.000000e+00 0.000000e+00
9.200000e+01 4.000000e+00 0.000000e+00
9.600000e+01 4.000000e+00 0.000000e+00
1.000000e+02 4.000000e+00 0.000000e+00
1.040000e+02 4.000000e+00 0.000000e+00
1.080000e+02 4.000000e+00 0.000000e+00
1.120000e+02 4.000000e+00 0.000000e+00
1.160000e+02 4.000000e+00 0.000000e+00
1.200000e+02 4.000000e+00 0.000000e+00
1.240000e+02 4.000000e+00 0.000000e+00
1.280000e+02 4.000000e+00 0.000000e+00
1.320000e+02 4.000000e+00 0.000000e+00
1.360000e+02 4.000000e+00 0.000000e+00
1.400000e+02 4.000000e+00 0.000000e+00
1.440000e+02 4.000000e+00 0.000000e+00
1.480000e+02 4.000000e+00 0.000000e+00
1.520000e+02 4.000000e+00 0.000000e+00
1.560000e+02 4.000000e+00 0.000000e+00
1.600000e+02 4.000000e+00 0.000000e+00
1.640000e+02 4.000000e+00 0.000000e+00
1.680000e+02 4.000000e+00 0.000000e+00
1.720000e+02 4.000000e+00 0.000000e+00
1.760000e+02 4.000000e+00 0.000000e+00
1.800000e+02 4.000000e+00 0.000000e+00
1.840000e+02 4.000000e+00 0.000000e+00
1.880000e+02 4.000000e+00 0.000000e+00
1.920000e+02 4.000000e+00 0.000000e+00
1.960000e+02 4.000000e+00 0.000000e+00
2.000000e+02 4.000000e+00 0.000000e+00
2.040000e+02 4.000000e+00 0.000000e+00
2.080000e+02 4.000000e+00 0.000000e+00
2.120000e+02 4.000000e+00 0.000000e+00
2.160000e+02 4.000000e+00 0.000000e+00
2.200000e+02 4.000000e+00 0.000000e+00
2.240000e+02 4.000000e+00 0.000000e+00
2.280000e+02 4.000000e+00 0.000000e+00
2.320000e+02 4.000000e+00 0.000000e+00
2.360000e+02 4.000000e+00 0.000000e+00
2.400000e+02 4.000000e+00 0.000000e+00
2.440000e+02 4.000000e+00 0.000000e+00
2.480000e+02 4.000000e+00 0.000000e+00
2.520000e+02 4.000000e+00 0.000000e+00
2.560000e+02 4.000000e+00 0.000000e+00
2.600000e+02 4.000000e+00 0.000000e+00
2.640000e+02 4.000000e+00 0.000000e+00
2.680000e+02 4.000000e+00 0.000000e+00
2.720000e+02 4.000000e+00 0.000000e+00
2.760000e+02 4.000000e+00 0.000000e+00
2.800000e+02 4.000000e+00 0.000000e+00
2.840000e+02 4.000000e+00 0.000000e+00
2.880000e+02 4.000000e+00 0.000000e+00
2.920000e+02 4.000000e+00 0.000000e+00
2.960000e+02 4.000000e+00 0.000000e+00
3.000000e+02 4.000000e+00 0.000000e+00
3.040000e+02 4.000000e+00 0.000000e+00
3.080000e+02 4.000000e+00 0.000000e+00
3.120000e+02 4.000000e+00 0.000000e+00
3.160000e+02 4.000000e+00 0.000000e+00
3.200000e+02 4.000000e+00 0.000000e+00
3.240000e+02 4.000000e+00 0.000000e+00
3.280000e+02 4.000000e+00 0.000000e+00
3.320000e+02 4.000000e+00 0.000000e+00
3.360000e+02 4.000000e+00 0.000000e+00
3.400000e+02 4.000000e+00 0.000000e+00
3.440000e+02 4.000000e+00 0.000000e+00
3.480000e+02 4.000000e+00 0.000000e+00
3.520000e+02 4.000000e+00 0.000000e+00
3.560000e+02 4.000000e+00 0.000000e+00
3.600000e+02 4.000000e+00 0.000000e+00
3.640000e+02 4.000000e+00 0.000000e+00
3.680000e+02 4.000000e+00 0.000000e+00
[...]
<PointData>
<DataArray Name="T" type="Float64" NumberOfComponents="1" format="ascii">
8.454995e+02
8.466584e+02
8.501405e+02
8.559625e+02
8.641507e+02
8.747405e+02
8.877739e+02
9.032971e+02
9.213581e+02
9.420034e+02
9.652750e+02
9.912062e+02
1.019819e+03
1.051121e+03
1.085100e+03
1.121724e+03
1.160938e+03
1.202660e+03
1.246782e+03
1.293169e+03
1.341658e+03
1.392059e+03
1.444156e+03
1.497705e+03
1.552438e+03
1.608056e+03
1.656615e+03
1.705443e+03
1.754252e+03
1.802763e+03
1.850710e+03
1.897845e+03
1.943935e+03
1.988762e+03
2.032130e+03
2.073867e+03
2.113822e+03
2.151872e+03
2.187919e+03
2.221893e+03
2.253749e+03
2.283466e+03
2.311049e+03
2.336523e+03
2.359932e+03
2.381339e+03
2.400818e+03
2.418460e+03
2.434361e+03
2.448626e+03
2.461364e+03
2.472686e+03
2.482706e+03
2.491532e+03
2.499275e+03
2.506037e+03
2.511917e+03
2.517011e+03
2.521404e+03
2.525178e+03
2.528406e+03
2.531158e+03
2.533493e+03
2.535466e+03
2.537125e+03
2.538515e+03
2.539672e+03
2.540629e+03
2.541413e+03
2.542048e+03
2.542554e+03
2.542948e+03
2.543241e+03
2.543444e+03
2.543563e+03
2.543603e+03
2.543565e+03
2.543448e+03
2.543247e+03
2.542957e+03
2.542566e+03
2.542063e+03
2.541432e+03
2.540653e+03
2.539702e+03
2.538552e+03
2.537171e+03
2.535520e+03
2.533559e+03
2.531237e+03
2.528501e+03
2.525290e+03
2.521537e+03
2.517167e+03
2.512101e+03
2.506250e+03
2.499522e+03
2.491818e+03
2.483033e+03
2.473061e+03
2.461789e+03
2.449106e+03
2.434901e+03
2.419065e+03
2.401492e+03
2.382084e+03
2.360753e+03
2.337423e+03
2.312030e+03
2.284529e+03
2.254894e+03
2.223121e+03
2.189229e+03
2.153260e+03
2.115287e+03
2.075404e+03
2.033733e+03
1.990425e+03
1.945651e+03
1.899606e+03
1.852507e+03
1.804586e+03
1.756093e+03
1.707291e+03
1.658459e+03
1.609887e+03
1.554243e+03
1.499476e+03
1.445883e+03
1.393735e+03
1.343276e+03
1.294723e+03
1.248267e+03
1.204072e+03
1.162274e+03
1.122983e+03
1.086281e+03
1.052225e+03
1.020847e+03
9.921609e+02
9.661599e+02
9.428228e+02
9.221169e+02
9.040009e+02
8.884291e+02
8.753538e+02
8.647291e+02
8.565133e+02
8.506716e+02
8.471776e+02
8.460147e+02
8.453936e+02
8.465515e+02
8.500306e+02
8.558475e+02
8.640287e+02
8.746096e+02
8.876320e+02
9.031424e+02
9.211888e+02
9.418179e+02
9.650714e+02
9.909831e+02
1.019575e+03
1.050855e+03
1.084811e+03
1.121411e+03
1.160600e+03
1.202297e+03
1.246394e+03
1.292756e+03
1.341221e+03
1.391598e+03
1.443674e+03
1.497208e+03
1.551932e+03
1.607549e+03
1.656111e+03
1.704942e+03
1.753750e+03
1.802257e+03
1.850201e+03
1.897334e+03
1.943424e+03
1.988254e+03
2.031628e+03
2.073373e+03
2.113338e+03
2.151399e+03
2.187460e+03
2.221450e+03
2.253322e+03
2.283057e+03
2.310659e+03
2.336152e+03
2.359581e+03
2.381007e+03
2.400507e+03
2.418169e+03
2.434089e+03
2.448373e+03
2.461129e+03
2.472470e+03
2.482506e+03
2.491349e+03
2.499106e+03
2.505882e+03
2.511776e+03
2.516882e+03
2.521286e+03
2.525070e+03
2.528309e+03
2.531069e+03
2.533411e+03
2.535391e+03
2.537057e+03
2.538452e+03
2.539614e+03
2.540575e+03
2.541362e+03
2.542001e+03
2.542510e+03
2.542905e+03
2.543200e+03
2.543404e+03
2.543524e+03
2.543564e+03
2.543526e+03
2.543408e+03
2.543206e+03
2.542914e+03
2.542521e+03
2.542016e+03
2.541382e+03
2.540599e+03
2.539644e+03
2.538489e+03
2.537102e+03
2.535446e+03
2.533477e+03
2.531148e+03
2.528403e+03
2.525183e+03
2.521419e+03
2.517038e+03
2.511959e+03
2.506096e+03
2.499354e+03
2.491634e+03
2.482833e+03
2.472844e+03
2.461554e+03
2.448854e+03
2.434630e+03
2.418774e+03
2.401181e+03
2.381753e+03
2.360402e+03
2.337052e+03
2.311639e+03
2.284120e+03
2.254468e+03
2.222678e+03
2.188770e+03
2.152789e+03
2.114803e+03
2.074909e+03
2.033231e+03
1.989917e+03
1.945140e+03
1.899095e+03
1.851998e+03
1.804081e+03
1.755591e+03
1.706790e+03
1.657956e+03
1.609381e+03
1.553738e+03
1.498979e+03
1.445402e+03
1.393275e+03
1.342839e+03
1.294310e+03
1.247879e+03
1.203709e+03
1.161937e+03
1.122670e+03
1.085992e+03
1.051959e+03
1.020603e+03
9.919380e+02
9.659565e+02
9.426374e+02
9.219478e+02
9.038464e+02
8.882873e+02
8.752229e+02
8.646072e+02
8.563984e+02
8.505618e+02
8.470707e+02
8.459089e+02
8.450765e+02
8.462313e+02
8.497014e+02
8.555032e+02
8.636635e+02
8.742174e+02
8.872072e+02
9.026793e+02
9.206819e+02
9.412619e+02
9.644615e+02
9.903147e+02
1.018844e+03
1.050057e+03
1.083943e+03
1.120472e+03
1.159587e+03
1.201208e+03
1.245230e+03
1.291517e+03
1.339909e+03
1.390216e+03
1.442227e+03
1.495709e+03
1.550407e+03
1.606027e+03
1.654604e+03
1.703445e+03
1.752248e+03
1.800741e+03
1.848672e+03
1.895799e+03
1.941890e+03
1.986730e+03
2.030120e+03
2.071888e+03
2.111883e+03
2.149981e+03
2.186083e+03
2.220118e+03
2.252040e+03
2.281829e+03
2.309486e+03
2.335037e+03
2.358525e+03
2.380012e+03
2.399572e+03
2.417292e+03
2.433271e+03
2.447612e+03
2.460424e+03
2.471817e+03
2.481904e+03
2.490795e+03
2.498598e+03
2.505417e+03
2.511351e+03
2.516493e+03
2.520931e+03
2.524747e+03
2.528013e+03
2.530799e+03
2.533165e+03
2.535166e+03
2.536851e+03
2.538262e+03
2.539438e+03
2.540412e+03
2.541210e+03
2.541858e+03
2.542374e+03
2.542776e+03
2.543075e+03
2.543282e+03
2.543405e+03
2.543446e+03
2.543406e+03
2.543287e+03
2.543082e+03
2.542785e+03
2.542386e+03
2.541873e+03
2.541230e+03
2.540436e+03
2.539469e+03
2.538299e+03
2.536896e+03
2.535221e+03
2.533231e+03
2.530878e+03
2.528108e+03
2.524859e+03
2.521064e+03
2.516649e+03
2.511534e+03
2.505630e+03
2.498846e+03
2.491081e+03
2.482232e+03
2.472192e+03
2.460849e+03
2.448093e+03
2.433812e+03
2.417898e+03
2.400245e+03
2.380758e+03
2.359347e+03
2.335938e+03
2.310468e+03
2.282892e+03
2.253187e+03
2.221347e+03
2.187394e+03
2.151371e+03
2.113350e+03
2.073427e+03
2.031725e+03
1.988395e+03
1.943608e+03
1.897562e+03
1.850471e+03
1.802567e+03
1.754091e+03
1.705294e+03
1.656450e+03
1.607860e+03
1.552214e+03
1.497481e+03
1.443955e+03
1.391893e+03
1.341528e+03
1.293073e+03
1.246716e+03
1.202622e+03
1.160924e+03
1.121732e+03
1.085126e+03
1.051162e+03
1.019873e+03
9.912702e+02
9.653471e+02
9.420819e+02
9.214412e+02
9.033836e+02
8.878628e+02
8.748310e+02
8.642421e+02
8.560544e+02
8.502328e+02
8.467507e+02
8.455919e+02
8.445500e+02
8.456998e+02
8.491547e+02
8.549315e+02
8.630568e+02
8.735660e+02
8.865015e+02
9.019098e+02
9.198397e+02
9.403382e+02
9.634481e+02
9.892039e+02
1.017629e+03
1.048731e+03
1.082502e+03
1.118910e+03
1.157902e+03
1.199398e+03
1.243294e+03
1.289457e+03
1.337725e+03
1.387913e+03
1.439811e+03
1.493190e+03
1.547832e+03
1.603478e+03
1.652111e+03
1.700984e+03
1.749765e+03
1.798219e+03
1.846124e+03
1.893240e+03
1.939333e+03
1.984187e+03
2.027605e+03
2.069411e+03
2.109456e+03
2.147612e+03
2.183783e+03
2.217894e+03
2.249898e+03
2.279775e+03
2.307526e+03
2.333173e+03
2.356759e+03
2.378345e+03
2.398004e+03
2.415824e+03
2.431901e+03
2.446337e+03
2.459240e+03
2.470722e+03
2.480894e+03
2.489865e+03
2.497744e+03
2.504634e+03
2.510634e+03
2.515838e+03
2.520333e+03
2.524201e+03
2.527515e+03
2.530344e+03
2.532749e+03
2.534785e+03
2.536501e+03
2.537940e+03
2.539141e+03
2.540135e+03
2.540952e+03
2.541615e+03
2.542144e+03
2.542555e+03
2.542863e+03
2.543076e+03
2.543201e+03
2.543243e+03
2.543203e+03
2.543080e+03
2.542869e+03
2.542564e+03
2.542156e+03
2.541630e+03
2.540971e+03
2.540159e+03
2.539171e+03
2.537977e+03
2.536546e+03
2.534840e+03
2.532815e+03
2.530423e+03
2.527610e+03
2.524313e+03
2.520466e+03
2.515995e+03
2.510818e+03
2.504848e+03
2.497992e+03
2.490151e+03
2.481222e+03
2.471097e+03
2.459666e+03
2.446818e+03
2.432442e+03
2.416430e+03
2.398679e+03
2.379092e+03
2.357582e+03
2.334074e+03
2.308508e+03
2.280840e+03
2.251046e+03
2.219124e+03
2.185095e+03
2.149004e+03
2.110924e+03
2.070952e+03
2.029212e+03
1.985854e+03
1.941053e+03
1.895005e+03
1.847926e+03
1.800047e+03
1.751610e+03
1.702836e+03
1.653959e+03
1.605313e+03
1.549641e+03
1.494964e+03
1.441542e+03
1.389593e+03
1.339346e+03
1.291014e+03
1.244782e+03
1.200813e+03
1.159241e+03
1.120171e+03
1.083685e+03
1.049837e+03
1.018659e+03
9.901602e+02
9.643344e+02
9.411588e+02
9.205995e+02
9.026147e+02
8.871575e+02
8.741800e+02
8.636359e+02
8.554830e+02
8.496864e+02
8.462194e+02
8.450657e+02
8.438169e+02
8.449597e+02
8.483937e+02
8.541356e+02
8.622121e+02
8.726589e+02
8.855185e+02
9.008380e+02
9.186662e+02
9.390510e+02
9.620355e+02
9.876553e+02
1.015935e+03
1.046883e+03
1.080491e+03
1.116731e+03
1.155551e+03
1.196872e+03
1.240592e+03
1.286580e+03
1.334676e+03
1.384696e+03
1.436430e+03
1.489648e+03
1.544101e+03
1.599807e+03
1.648750e+03
1.697648e+03
1.746300e+03
1.794688e+03
1.842554e+03
1.889653e+03
1.935748e+03
1.980622e+03
2.024077e+03
2.065937e+03
2.106049e+03
2.144288e+03
2.180552e+03
2.214768e+03
2.246888e+03
2.276887e+03
2.304767e+03
2.330548e+03
2.354272e+03
2.375997e+03
2.395795e+03
2.413753e+03
2.429966e+03
2.444535e+03
2.457568e+03
2.469174e+03
2.479464e+03
2.488548e+03
2.496534e+03
2.503523e+03
2.509617e+03
2.514907e+03
2.519482e+03
2.523423e+03
2.526804e+03
2.529694e+03
2.532154e+03
2.534240e+03
2.536000e+03
2.537478e+03
2.538713e+03
2.539737e+03
2.540580e+03
2.541264e+03
2.541811e+03
2.542238e+03
2.542556e+03
2.542777e+03
2.542907e+03
2.542950e+03
2.542909e+03
2.542781e+03
2.542562e+03
2.542246e+03
2.541823e+03
2.541280e+03
2.540599e+03
2.539761e+03
2.538743e+03
2.537515e+03
2.536045e+03
2.534294e+03
2.532220e+03
2.529774e+03
2.526899e+03
2.523536e+03
2.519615e+03
2.515064e+03
2.509800e+03
2.503737e+03
2.496781e+03
2.488834e+03
2.479793e+03
2.469549e+03
2.457994e+03
2.445017e+03
2.430508e+03
2.414360e+03
2.396471e+03
2.376745e+03
2.355096e+03
2.331451e+03
2.305751e+03
2.277954e+03
2.248038e+03
2.216001e+03
2.181866e+03
2.145682e+03
2.107520e+03
2.067479e+03
2.025687e+03
1.982292e+03
1.937471e+03
1.891421e+03
1.844358e+03
1.796519e+03
1.748148e+03
1.699502e+03
1.650601e+03
1.601645e+03
1.545913e+03
1.491424e+03
1.438163e+03
1.386378e+03
1.336299e+03
1.288139e+03
1.242082e+03
1.198289e+03
1.156891e+03
1.117994e+03
1.081676e+03
1.047990e+03
1.016965e+03
9.886126e+02
9.629227e+02
9.398723e+02
9.194267e+02
9.015433e+02
8.861750e+02
8.732733e+02
8.627914e+02
8.546874e+02
8.489257e+02
8.454797e+02
8.443329e+02
8.428815e+02
8.440153e+02
8.474224e+02
8.531196e+02
8.611337e+02
8.715007e+02
8.842632e+02
8.994689e+02
9.171670e+02
9.374061e+02
9.602302e+02
9.856757e+02
1.013768e+03
1.044518e+03
1.077919e+03
1.113943e+03
1.152542e+03
1.193638e+03
1.237132e+03
1.282894e+03
1.330769e+03
1.380574e+03
1.432098e+03
1.485102e+03
1.539318e+03
1.594199e+03
1.645156e+03
1.693327e+03
1.741837e+03
1.790140e+03
1.837958e+03
1.885035e+03
1.931133e+03
1.976032e+03
2.019532e+03
2.061458e+03
2.101656e+03
2.139998e+03
2.176382e+03
2.210732e+03
2.242997e+03
2.273153e+03
2.301198e+03
2.327150e+03
2.351049e+03
2.372951e+03
2.392928e+03
2.411064e+03
2.427451e+03
2.442191e+03
2.455390e+03
2.467156e+03
2.477599e+03
2.486828e+03
2.494951e+03
2.502070e+03
2.508284e+03
2.513686e+03
2.518365e+03
2.522400e+03
2.525868e+03
2.528837e+03
2.531368e+03
2.533518e+03
2.535335e+03
2.536864e+03
2.538144e+03
2.539207e+03
2.540083e+03
2.540796e+03
2.541366e+03
2.541812e+03
2.542145e+03
2.542375e+03
2.542512e+03
2.542557e+03
2.542514e+03
2.542380e+03
2.542151e+03
2.541821e+03
2.541378e+03
2.540811e+03
2.540102e+03
2.539231e+03
2.538174e+03
2.536901e+03
2.535380e+03
2.533573e+03
2.531434e+03
2.528916e+03
2.525963e+03
2.522513e+03
2.518498e+03
2.513843e+03
2.508467e+03
2.502284e+03
2.495199e+03
2.487115e+03
2.477927e+03
2.467531e+03
2.455817e+03
2.442674e+03
2.427994e+03
2.411672e+03
2.393605e+03
2.373700e+03
2.351874e+03
2.328054e+03
2.302183e+03
2.274221e+03
2.244149e+03
2.211966e+03
2.177698e+03
2.141394e+03
2.103129e+03
2.063003e+03
2.021144e+03
1.977704e+03
1.932858e+03
1.886806e+03
1.839765e+03
1.791973e+03
1.743687e+03
1.695184e+03
1.647009e+03
1.596038e+03
1.541132e+03
1.486880e+03
1.433833e+03
1.382257e+03
1.332394e+03
1.284455e+03
1.238623e+03
1.195056e+03
1.153883e+03
1.115208e+03
1.079104e+03
1.045626e+03
1.014800e+03
9.866338e+02
9.611180e+02
9.382280e+02
9.179280e+02
9.001747e+02
8.849201e+02
8.721154e+02
8.617134e+02
8.536716e+02
8.479546e+02
8.445355e+02
8.433976e+02
8.417490e+02
8.428719e+02
8.462463e+02
8.518892e+02
8.598276e+02
8.700975e+02
8.827421e+02
8.978093e+02
9.153493e+02
9.354111e+02
9.580400e+02
9.832734e+02
1.011138e+03
1.041647e+03
1.074794e+03
1.110556e+03
1.148884e+03
1.189706e+03
1.232924e+03
1.278411e+03
1.326016e+03
1.375557e+03
1.426830e+03
1.479597e+03
1.533561e+03
1.588373e+03
1.639735e+03
1.687960e+03
1.736342e+03
1.784567e+03
1.832333e+03
1.879384e+03
1.925483e+03
1.970410e+03
2.013964e+03
2.055968e+03
2.096268e+03
2.134733e+03
2.171260e+03
2.205770e+03
2.238212e+03
2.268557e+03
2.296801e+03
2.322960e+03
2.347072e+03
2.369190e+03
2.389385e+03
2.407736e+03
2.424336e+03
2.439285e+03
2.452686e+03
2.464647e+03
2.475278e+03
2.484685e+03
2.492976e+03
2.500253e+03
2.506615e+03
2.512155e+03
2.516961e+03
2.521114e+03
2.524689e+03
2.527756e+03
2.530375e+03
2.532604e+03
2.534492e+03
2.536084e+03
2.537419e+03
2.538531e+03
2.539448e+03
2.540196e+03
2.540796e+03
2.541265e+03
2.541616e+03
2.541859e+03
2.542003e+03
2.542051e+03
2.542005e+03
2.541864e+03
2.541622e+03
2.541274e+03
2.540808e+03
2.540212e+03
2.539468e+03
2.538555e+03
2.537449e+03
2.536121e+03
2.534537e+03
2.532659e+03
2.530441e+03
2.527835e+03
2.524784e+03
2.521227e+03
2.517094e+03
2.512312e+03
2.506799e+03
2.500467e+03
2.493224e+03
2.484972e+03
2.475607e+03
2.465023e+03
2.453113e+03
2.439768e+03
2.424880e+03
2.408344e+03
2.390062e+03
2.369940e+03
2.347898e+03
2.323865e+03
2.297787e+03
2.269626e+03
2.239365e+03
2.207006e+03
2.172578e+03
2.136131e+03
2.097742e+03
2.057515e+03
2.015578e+03
1.972084e+03
1.927211e+03
1.881157e+03
1.834142e+03
1.786402e+03
1.738194e+03
1.689819e+03
1.641590e+03
1.590214e+03
1.535376e+03
1.481377e+03
1.428566e+03
1.377242e+03
1.327642e+03
1.279973e+03
1.234416e+03
1.191125e+03
1.150227e+03
1.111821e+03
1.075981e+03
1.042755e+03
1.012170e+03
9.842319e+02
9.589282e+02
9.362334e+02
9.161105e+02
8.985153e+02
8.833990e+02
8.707122e+02
8.604072e+02
8.524412e+02
8.467784e+02
8.433919e+02
8.422650e+02
8.404255e+02
8.415357e+02
8.448719e+02
8.504510e+02
8.583005e+02
8.684565e+02
8.809627e+02
8.958676e+02
9.132217e+02
9.330754e+02
9.554747e+02
9.804587e+02
1.008056e+03
1.038280e+03
1.071130e+03
1.106582e+03
1.144591e+03
1.185089e+03
1.227980e+03
1.273142e+03
1.320427e+03
1.369659e+03
1.420638e+03
1.473142e+03
1.526939e+03
1.581745e+03
1.633193e+03
1.681473e+03
1.729821e+03
1.777968e+03
1.825677e+03
1.872698e+03
1.918796e+03
1.963752e+03
2.007365e+03
2.049458e+03
2.089873e+03
2.128479e+03
2.165171e+03
2.199868e+03
2.232514e+03
2.263079e+03
2.291555e+03
2.317957e+03
2.342319e+03
2.364690e+03
2.385140e+03
2.403745e+03
2.420597e+03
2.435792e+03
2.449432e+03
2.461624e+03
2.472476e+03
2.482094e+03
2.490585e+03
2.498051e+03
2.504589e+03
2.510293e+03
2.515250e+03
2.519543e+03
2.523246e+03
2.526429e+03
2.529154e+03
2.531478e+03
2.533451e+03
2.535119e+03
2.536521e+03
2.537690e+03
2.538658e+03
2.539448e+03
2.540083e+03
2.540580e+03
2.540953e+03
2.541212e+03
2.541365e+03
2.541416e+03
2.541367e+03
2.541216e+03
2.540959e+03
2.540589e+03
2.540095e+03
2.539464e+03
2.538677e+03
2.537714e+03
2.536551e+03
2.535156e+03
2.533496e+03
2.531533e+03
2.529220e+03
2.526508e+03
2.523341e+03
2.519655e+03
2.515383e+03
2.510449e+03
2.504772e+03
2.498265e+03
2.490833e+03
2.482381e+03
2.472805e+03
2.462000e+03
2.449859e+03
2.436274e+03
2.421140e+03
2.404354e+03
2.385817e+03
2.365440e+03
2.343145e+03
2.318863e+03
2.292542e+03
2.264149e+03
2.233667e+03
2.201105e+03
2.166490e+03
2.129878e+03
2.091349e+03
2.051006e+03
2.008980e+03
1.965427e+03
1.920525e+03
1.874472e+03
1.827487e+03
1.779805e+03
1.731674e+03
1.683333e+03
1.635049e+03
1.583586e+03
1.528755e+03
1.474923e+03
1.422375e+03
1.371344e+03
1.322054e+03
1.274705e+03
1.229473e+03
1.186509e+03
1.145934e+03
1.107847e+03
1.072316e+03
1.039389e+03
1.009088e+03
9.814171e+02
9.563627e+02
9.338973e+02
9.139827e+02
8.965732e+02
8.816193e+02
8.690708e+02
8.588796e+02
8.510026e+02
8.454035e+02
8.420552e+02
8.409411e+02
8.389187e+02
8.400142e+02
8.433066e+02
8.488130e+02
8.565607e+02
8.665864e+02
8.789342e+02
8.936530e+02
9.107945e+02
9.304097e+02
9.525460e+02
9.772439e+02
1.004534e+03
1.034432e+03
1.066939e+03
1.102035e+03
1.139678e+03
1.179802e+03
1.222316e+03
1.267103e+03
1.314017e+03
1.362890e+03
1.413528e+03
1.465722e+03
1.519270e+03
1.574138e+03
1.625679e+03
1.674062e+03
1.722298e+03
1.770356e+03
1.817997e+03
1.864978e+03
1.911069e+03
1.956052e+03
1.999729e+03
2.041917e+03
2.082460e+03
2.121224e+03
2.158101e+03
2.193007e+03
2.225885e+03
2.256699e+03
2.285439e+03
2.312117e+03
2.336763e+03
2.359425e+03
2.380167e+03
2.399064e+03
2.416204e+03
2.431682e+03
2.445598e+03
2.458056e+03
2.469164e+03
2.479027e+03
2.487750e+03
2.495433e+03
2.502176e+03
2.508070e+03
2.513205e+03
2.517660e+03
2.521513e+03
2.524832e+03
2.527681e+03
2.530116e+03
2.532189e+03
2.533946e+03
2.535426e+03
2.536664e+03
2.537690e+03
2.538531e+03
2.539208e+03
2.539738e+03
2.540136e+03
2.540414e+03
2.540577e+03
2.540632e+03
2.540579e+03
2.540418e+03
2.540143e+03
2.539747e+03
2.539219e+03
2.538546e+03
2.537710e+03
2.536688e+03
2.535456e+03
2.533983e+03
2.532234e+03
2.530171e+03
2.527747e+03
2.524911e+03
2.521607e+03
2.517772e+03
2.513337e+03
2.508227e+03
2.502359e+03
2.495647e+03
2.487997e+03
2.479313e+03
2.469493e+03
2.458432e+03
2.446024e+03
2.432164e+03
2.416747e+03
2.399671e+03
2.380843e+03
2.360175e+03
2.337589e+03
2.313022e+03
2.286426e+03
2.257768e+03
2.227037e+03
2.194243e+03
2.159419e+03
2.122623e+03
2.083935e+03
2.043464e+03
2.001343e+03
1.957728e+03
1.912797e+03
1.866751e+03
1.819806e+03
1.772192e+03
1.724150e+03
1.675921e+03
1.627534e+03
1.575978e+03
1.521084e+03
1.467501e+03
1.415264e+03
1.364574e+03
1.315643e+03
1.268664e+03
1.223808e+03
1.181220e+03
1.141019e+03
1.103299e+03
1.068124e+03
1.035540e+03
1.005565e+03
9.782011e+02
9.534328e+02
9.312305e+02
9.115543e+02
8.943575e+02
8.795897e+02
8.671996e+02
8.571388e+02
8.493635e+02
8.438372e+02
8.405328e+02
8.394332e+02
8.372368e+02
8.383159e+02
8.415592e+02
8.469838e+02
8.546174e+02
8.644969e+02
8.766668e+02
8.911768e+02
9.080792e+02
9.274263e+02
9.492667e+02
9.736428e+02
1.000587e+03
1.030118e+03
1.062238e+03
1.096932e+03
1.134160e+03
1.173862e+03
1.215950e+03
1.260310e+03
1.306803e+03
1.355265e+03
1.405507e+03
1.457321e+03
1.510487e+03
1.564819e+03
1.617921e+03
1.665729e+03
1.713804e+03
1.761749e+03
1.809297e+03
1.856224e+03
1.902300e+03
1.947307e+03
1.991046e+03
2.033335e+03
2.074016e+03
2.112951e+03
2.150031e+03
2.185168e+03
2.218301e+03
2.249392e+03
2.278427e+03
2.305413e+03
2.330377e+03
2.353364e+03
2.374433e+03
2.393659e+03
2.411124e+03
2.426921e+03
2.441149e+03
2.453910e+03
2.465309e+03
2.475449e+03
2.484435e+03
2.492367e+03
2.499344e+03
2.505456e+03
2.510793e+03
2.515436e+03
2.519460e+03
2.522936e+03
2.525927e+03
2.528491e+03
2.530679e+03
2.532538e+03
2.534109e+03
2.535426e+03
2.536521e+03
2.537420e+03
2.538145e+03
2.538714e+03
2.539142e+03
2.539440e+03
2.539617e+03
2.539676e+03
2.539619e+03
2.539445e+03
2.539148e+03
2.538723e+03
2.538156e+03
2.537435e+03
2.536540e+03
2.535450e+03
2.534139e+03
2.532575e+03
2.530724e+03
2.528545e+03
2.525992e+03
2.523014e+03
2.519554e+03
2.515547e+03
2.510925e+03
2.505612e+03
2.499526e+03
2.492580e+03
2.484682e+03
2.475734e+03
2.465636e+03
2.454285e+03
2.441575e+03
2.427403e+03
2.411666e+03
2.394265e+03
2.375108e+03
2.354112e+03
2.331201e+03
2.306316e+03
2.279411e+03
2.250459e+03
2.219451e+03
2.186402e+03
2.151347e+03
2.114347e+03
2.075488e+03
2.034880e+03
1.992658e+03
1.948979e+03
1.904025e+03
1.857994e+03
1.811104e+03
1.763581e+03
1.715653e+03
1.667584e+03
1.619772e+03
1.566655e+03
1.512298e+03
1.459096e+03
1.407239e+03
1.356946e+03
1.308426e+03
1.261868e+03
1.217438e+03
1.175277e+03
1.135499e+03
1.098193e+03
1.063421e+03
1.031222e+03
1.001615e+03
9.745975e+02
9.501512e+02
9.282448e+02
9.088369e+02
8.918793e+02
8.773203e+02
8.651082e+02
8.551937e+02
8.475325e+02
8.420880e+02
8.388328e+02
8.377496e+02
8.353890e+02
8.364501e+02
8.396391e+02
8.449734e+02
8.524808e+02
8.621987e+02
8.741719e+02
8.884509e+02
9.050889e+02
9.241391e+02
9.456519e+02
9.696711e+02
9.962314e+02
1.025354e+03
1.057045e+03
1.091292e+03
1.128059e+03
1.167289e+03
1.208900e+03
1.252784e+03
1.298805e+03