<?xml version="1.0"?>
<VTKFile type="UnstructuredGrid" version="0.1">
<UnstructuredGrid>
<FieldData>
<DataArray Name="TIME" type="Float64" format="ascii" NumberOfTuples="1">
0.000000e+00
</DataArray>
</FieldData>
<FieldData>
<DataArray Name="CYCLE" type="Int32" format="ascii" NumberOfTuples="1">
0
</DataArray>
</FieldData>
<Piece NumberOfPoints="22801" NumberOfCells="22500">
<Points>
<DataArray NumberOfComponents="3" type="Float64" format="ascii">
0.000000e+00 0.000000e+00 0.000000e+00
4.000000e+00 0.000000e+00 0.000000e+00
8.000000e+00 0.000000e+00 0.000000e+00
1.200000e+01 0.000000e+00 0.000000e+00
1.600000e+01 0.000000e+00 0.000000e+00
2.000000e+01 0.000000e+00 0.000000e+00
2.400000e+01 0.000000e+00 0.000000e+00
2.800000e+01 0.000000e+00 0.000000e+00
3.200000e+01 0.000000e+00 0.000000e+00
3.600000e+01 0.000000e+00 0.000000e+00
4.000000e+01 0.000000e+00 0.000000e+00
4.400000e+01 0.000000e+00 0.000000e+00
4.800000e+01 0.000000e+00 0.000000e+00
5.200000e+01 0.000000e+00 0.000000e+00
5.600000e+01 0.000000e+00 0.000000e+00
6.000000e+01 0.000000e+00 0.000000e+00
6.400000e+01 0.000000e+00 0.000000e+00
6.800000e+01 0.000000e+00 0.000000e+00
7.200000e+01 0.000000e+00 0.000000e+00
7.600000e+01 0.000000e+00 0.000000e+00
8.000000e+01 0.000000e+00 0.000000e+00
8.400000e+01 0.000000e+00 0.000000e+00
8.800000e+01 0.000000e+00 0.000000e+00
9.200000e+01 0.000000e+00 0.000000e+00
9.600000e+01 0.000000e+00 0.000000e+00
1.000000e+02 0.000000e+00 0.000000e+00
1.040000e+02 0.000000e+00 0.000000e+00
1.080000e+02 0.000000e+00 0.000000e+00
1.120000e+02 0.000000e+00 0.000000e+00
1.160000e+02 0.000000e+00 0.000000e+00
1.200000e+02 0.000000e+00 0.000000e+00
1.240000e+02 0.000000e+00 0.000000e+00
1.280000e+02 0.000000e+00 0.000000e+00
1.320000e+02 0.000000e+00 0.000000e+00
1.360000e+02 0.000000e+00 0.000000e+00
1.400000e+02 0.000000e+00 0.000000e+00
1.440000e+02 0.000000e+00 0.000000e+00
1.480000e+02 0.000000e+00 0.000000e+00
1.520000e+02 0.000000e+00 0.000000e+00
1.560000e+02 0.000000e+00 0.000000e+00
1.600000e+02 0.000000e+00 0.000000e+00
1.640000e+02 0.000000e+00 0.000000e+00
1.680000e+02 0.000000e+00 0.000000e+00
1.720000e+02 0.000000e+00 0.000000e+00
1.760000e+02 0.000000e+00 0.000000e+00
1.800000e+02 0.000000e+00 0.000000e+00
1.840000e+02 0.000000e+00 0.000000e+00
1.880000e+02 0.000000e+00 0.000000e+00
1.920000e+02 0.000000e+00 0.000000e+00
1.960000e+02 0.000000e+00 0.000000e+00
2.000000e+02 0.000000e+00 0.000000e+00
2.040000e+02 0.000000e+00 0.000000e+00
2.080000e+02 0.000000e+00 0.000000e+00
2.120000e+02 0.000000e+00 0.000000e+00
2.160000e+02 0.000000e+00 0.000000e+00
2.200000e+02 0.000000e+00 0.000000e+00
2.240000e+02 0.000000e+00 0.000000e+00
2.280000e+02 0.000000e+00 0.000000e+00
2.320000e+02 0.000000e+00 0.000000e+00
2.360000e+02 0.000000e+00 0.000000e+00
2.400000e+02 0.000000e+00 0.000000e+00
2.440000e+02 0.000000e+00 0.000000e+00
2.480000e+02 0.000000e+00 0.000000e+00
2.520000e+02 0.000000e+00 0.000000e+00
2.560000e+02 0.000000e+00 0.000000e+00
2.600000e+02 0.000000e+00 0.000000e+00
2.640000e+02 0.000000e+00 0.000000e+00
2.680000e+02 0.000000e+00 0.000000e+00
2.720000e+02 0.000000e+00 0.000000e+00
2.760000e+02 0.000000e+00 0.000000e+00
2.800000e+02 0.000000e+00 0.000000e+00
2.840000e+02 0.000000e+00 0.000000e+00
2.880000e+02 0.000000e+00 0.000000e+00
2.920000e+02 0.000000e+00 0.000000e+00
2.960000e+02 0.000000e+00 0.000000e+00
3.000000e+02 0.000000e+00 0.000000e+00
3.040000e+02 0.000000e+00 0.000000e+00
3.080000e+02 0.000000e+00 0.000000e+00
3.120000e+02 0.000000e+00 0.000000e+00
3.160000e+02 0.000000e+00 0.000000e+00
3.200000e+02 0.000000e+00 0.000000e+00
3.240000e+02 0.000000e+00 0.000000e+00
3.280000e+02 0.000000e+00 0.000000e+00
3.320000e+02 0.000000e+00 0.000000e+00
3.360000e+02 0.000000e+00 0.000000e+00
3.400000e+02 0.000000e+00 0.000000e+00
3.440000e+02 0.000000e+00 0.000000e+00
3.480000e+02 0.000000e+00 0.000000e+00
3.520000e+02 0.000000e+00 0.000000e+00
3.560000e+02 0.000000e+00 0.000000e+00
3.600000e+02 0.000000e+00 0.000000e+00
3.640000e+02 0.000000e+00 0.000000e+00
3.680000e+02 0.000000e+00 0.000000e+00
3.720000e+02 0.000000e+00 0.000000e+00
3.760000e+02 0.000000e+00 0.000000e+00
3.800000e+02 0.000000e+00 0.000000e+00
3.840000e+02 0.000000e+00 0.000000e+00
3.880000e+02 0.000000e+00 0.000000e+00
3.920000e+02 0.000000e+00 0.000000e+00
3.960000e+02 0.000000e+00 0.000000e+00
4.000000e+02 0.000000e+00 0.000000e+00
4.040000e+02 0.000000e+00 0.000000e+00
4.080000e+02 0.000000e+00 0.000000e+00
4.120000e+02 0.000000e+00 0.000000e+00
4.160000e+02 0.000000e+00 0.000000e+00
4.200000e+02 0.000000e+00 0.000000e+00
4.240000e+02 0.000000e+00 0.000000e+00
4.280000e+02 0.000000e+00 0.000000e+00
4.320000e+02 0.000000e+00 0.000000e+00
4.360000e+02 0.000000e+00 0.000000e+00
4.400000e+02 0.000000e+00 0.000000e+00
4.440000e+02 0.000000e+00 0.000000e+00
4.480000e+02 0.000000e+00 0.000000e+00
4.520000e+02 0.000000e+00 0.000000e+00
4.560000e+02 0.000000e+00 0.000000e+00
4.600000e+02 0.000000e+00 0.000000e+00
4.640000e+02 0.000000e+00 0.000000e+00
4.680000e+02 0.000000e+00 0.000000e+00
4.720000e+02 0.000000e+00 0.000000e+00
4.760000e+02 0.000000e+00 0.000000e+00
4.800000e+02 0.000000e+00 0.000000e+00
4.840000e+02 0.000000e+00 0.000000e+00
4.880000e+02 0.000000e+00 0.000000e+00
4.920000e+02 0.000000e+00 0.000000e+00
4.960000e+02 0.000000e+00 0.000000e+00
5.000000e+02 0.000000e+00 0.000000e+00
5.040000e+02 0.000000e+00 0.000000e+00
5.080000e+02 0.000000e+00 0.000000e+00
5.120000e+02 0.000000e+00 0.000000e+00
5.160000e+02 0.000000e+00 0.000000e+00
5.200000e+02 0.000000e+00 0.000000e+00
5.240000e+02 0.000000e+00 0.000000e+00
5.280000e+02 0.000000e+00 0.000000e+00
5.320000e+02 0.000000e+00 0.000000e+00
5.360000e+02 0.000000e+00 0.000000e+00
5.400000e+02 0.000000e+00 0.000000e+00
5.440000e+02 0.000000e+00 0.000000e+00
5.480000e+02 0.000000e+00 0.000000e+00
5.520000e+02 0.000000e+00 0.000000e+00
5.560000e+02 0.000000e+00 0.000000e+00
5.600000e+02 0.000000e+00 0.000000e+00
5.640000e+02 0.000000e+00 0.000000e+00
5.680000e+02 0.000000e+00 0.000000e+00
5.720000e+02 0.000000e+00 0.000000e+00
5.760000e+02 0.000000e+00 0.000000e+00
5.800000e+02 0.000000e+00 0.000000e+00
5.840000e+02 0.000000e+00 0.000000e+00
5.880000e+02 0.000000e+00 0.000000e+00
5.920000e+02 0.000000e+00 0.000000e+00
5.960000e+02 0.000000e+00 0.000000e+00
6.000000e+02 0.000000e+00 0.000000e+00
0.000000e+00 4.000000e+00 0.000000e+00
4.000000e+00 4.000000e+00 0.000000e+00
8.000000e+00 4.000000e+00 0.000000e+00
1.200000e+01 4.000000e+00 0.000000e+00
1.600000e+01 4.000000e+00 0.000000e+00
2.000000e+01 4.000000e+00 0.000000e+00
2.400000e+01 4.000000e+00 0.000000e+00
2.800000e+01 4.000000e+00 0.000000e+00
3.200000e+01 4.000000e+00 0.000000e+00
3.600000e+01 4.000000e+00 0.000000e+00
4.000000e+01 4.000000e+00 0.000000e+00
4.400000e+01 4.000000e+00 0.000000e+00
4.800000e+01 4.000000e+00 0.000000e+00
5.200000e+01 4.000000e+00 0.000000e+00
5.600000e+01 4.000000e+00 0.000000e+00
6.000000e+01 4.000000e+00 0.000000e+00
6.400000e+01 4.000000e+00 0.000000e+00
6.800000e+01 4.000000e+00 0.000000e+00
7.200000e+01 4.000000e+00 0.000000e+00
7.600000e+01 4.000000e+00 0.000000e+00
8.000000e+01 4.000000e+00 0.000000e+00
8.400000e+01 4.000000e+00 0.000000e+00
8.800000e+01 4.000000e+00 0.000000e+00
9.200000e+01 4.000000e+00 0.000000e+00
9.600000e+01 4.000000e+00 0.000000e+00
1.000000e+02 4.000000e+00 0.000000e+00
1.040000e+02 4.000000e+00 0.000000e+00
1.080000e+02 4.000000e+00 0.000000e+00
1.120000e+02 4.000000e+00 0.000000e+00
1.160000e+02 4.000000e+00 0.000000e+00
1.200000e+02 4.000000e+00 0.000000e+00
1.240000e+02 4.000000e+00 0.000000e+00
1.280000e+02 4.000000e+00 0.000000e+00
1.320000e+02 4.000000e+00 0.000000e+00
1.360000e+02 4.000000e+00 0.000000e+00
1.400000e+02 4.000000e+00 0.000000e+00
1.440000e+02 4.000000e+00 0.000000e+00
1.480000e+02 4.000000e+00 0.000000e+00
1.520000e+02 4.000000e+00 0.000000e+00
1.560000e+02 4.000000e+00 0.000000e+00
1.600000e+02 4.000000e+00 0.000000e+00
1.640000e+02 4.000000e+00 0.000000e+00
1.680000e+02 4.000000e+00 0.000000e+00
1.720000e+02 4.000000e+00 0.000000e+00
1.760000e+02 4.000000e+00 0.000000e+00
1.800000e+02 4.000000e+00 0.000000e+00
1.840000e+02 4.000000e+00 0.000000e+00
1.880000e+02 4.000000e+00 0.000000e+00
1.920000e+02 4.000000e+00 0.000000e+00
1.960000e+02 4.000000e+00 0.000000e+00
2.000000e+02 4.000000e+00 0.000000e+00
2.040000e+02 4.000000e+00 0.000000e+00
2.080000e+02 4.000000e+00 0.000000e+00
2.120000e+02 4.000000e+00 0.000000e+00
2.160000e+02 4.000000e+00 0.000000e+00
2.200000e+02 4.000000e+00 0.000000e+00
2.240000e+02 4.000000e+00 0.000000e+00
2.280000e+02 4.000000e+00 0.000000e+00
2.320000e+02 4.000000e+00 0.000000e+00
2.360000e+02 4.000000e+00 0.000000e+00
2.400000e+02 4.000000e+00 0.000000e+00
2.440000e+02 4.000000e+00 0.000000e+00
2.480000e+02 4.000000e+00 0.000000e+00
2.520000e+02 4.000000e+00 0.000000e+00
2.560000e+02 4.000000e+00 0.000000e+00
2.600000e+02 4.000000e+00 0.000000e+00
2.640000e+02 4.000000e+00 0.000000e+00
2.680000e+02 4.000000e+00 0.000000e+00
2.720000e+02 4.000000e+00 0.000000e+00
2.760000e+02 4.000000e+00 0.000000e+00
2.800000e+02 4.000000e+00 0.000000e+00
2.840000e+02 4.000000e+00 0.000000e+00
2.880000e+02 4.000000e+00 0.000000e+00
2.920000e+02 4.000000e+00 0.000000e+00
2.960000e+02 4.000000e+00 0.000000e+00
3.000000e+02 4.000000e+00 0.000000e+00
3.040000e+02 4.000000e+00 0.000000e+00
3.080000e+02 4.000000e+00 0.000000e+00
3.120000e+02 4.000000e+00 0.000000e+00
3.160000e+02 4.000000e+00 0.000000e+00
3.200000e+02 4.000000e+00 0.000000e+00
3.240000e+02 4.000000e+00 0.000000e+00
3.280000e+02 4.000000e+00 0.000000e+00
3.320000e+02 4.000000e+00 0.000000e+00
3.360000e+02 4.000000e+00 0.000000e+00
3.400000e+02 4.000000e+00 0.000000e+00
3.440000e+02 4.000000e+00 0.000000e+00
3.480000e+02 4.000000e+00 0.000000e+00
3.520000e+02 4.000000e+00 0.000000e+00
3.560000e+02 4.000000e+00 0.000000e+00
3.600000e+02 4.000000e+00 0.000000e+00
3.640000e+02 4.000000e+00 0.000000e+00
3.680000e+02 4.000000e+00 0.000000e+00
[...]
<PointData>
<DataArray Name="T" type="Float64" NumberOfComponents="1" format="ascii">
1.088479e+03
1.089355e+03
1.091980e+03
1.096348e+03
1.102448e+03
1.110265e+03
1.119778e+03
1.130964e+03
1.143793e+03
1.158234e+03
1.174248e+03
1.191794e+03
1.210827e+03
1.231296e+03
1.253150e+03
1.276328e+03
1.300771e+03
1.326414e+03
1.353188e+03
1.381022e+03
1.409841e+03
1.439568e+03
1.470122e+03
1.501419e+03
1.533368e+03
1.565871e+03
1.594358e+03
1.623196e+03
1.652295e+03
1.681569e+03
1.710937e+03
1.740324e+03
1.769658e+03
1.798866e+03
1.827881e+03
1.856635e+03
1.885065e+03
1.913109e+03
1.940711e+03
1.967815e+03
1.994370e+03
2.020331e+03
2.045654e+03
2.070299e+03
2.094233e+03
2.117424e+03
2.139845e+03
2.161474e+03
2.182291e+03
2.202281e+03
2.221434e+03
2.239741e+03
2.257197e+03
2.273800e+03
2.289553e+03
2.304458e+03
2.318521e+03
2.331751e+03
2.344158e+03
2.355753e+03
2.366549e+03
2.376558e+03
2.385795e+03
2.394275e+03
2.402011e+03
2.409019e+03
2.415312e+03
2.420903e+03
2.425805e+03
2.430030e+03
2.433588e+03
2.436488e+03
2.438737e+03
2.440341e+03
2.441305e+03
2.441632e+03
2.441322e+03
2.440375e+03
2.438787e+03
2.436555e+03
2.433673e+03
2.430133e+03
2.425926e+03
2.421043e+03
2.415471e+03
2.409198e+03
2.402211e+03
2.394496e+03
2.386039e+03
2.376825e+03
2.366840e+03
2.356069e+03
2.344500e+03
2.332119e+03
2.318916e+03
2.304880e+03
2.290003e+03
2.274280e+03
2.257706e+03
2.240280e+03
2.222003e+03
2.202881e+03
2.182921e+03
2.162134e+03
2.140536e+03
2.118145e+03
2.094984e+03
2.071080e+03
2.046463e+03
2.021168e+03
1.995235e+03
1.968705e+03
1.941626e+03
1.914048e+03
1.886025e+03
1.857616e+03
1.828881e+03
1.799883e+03
1.770690e+03
1.741370e+03
1.711995e+03
1.682636e+03
1.653370e+03
1.624277e+03
1.595442e+03
1.566957e+03
1.534455e+03
1.502505e+03
1.471205e+03
1.440646e+03
1.410914e+03
1.382088e+03
1.354246e+03
1.327464e+03
1.301812e+03
1.277359e+03
1.254169e+03
1.232306e+03
1.211825e+03
1.192782e+03
1.175226e+03
1.159202e+03
1.144753e+03
1.131915e+03
1.120722e+03
1.111202e+03
1.103380e+03
1.097275e+03
1.092904e+03
1.090276e+03
1.089400e+03
1.088292e+03
1.089167e+03
1.091791e+03
1.096158e+03
1.102256e+03
1.110069e+03
1.119579e+03
1.130760e+03
1.143584e+03
1.158019e+03
1.174027e+03
1.191567e+03
1.210593e+03
1.231055e+03
1.252900e+03
1.276071e+03
1.300506e+03
1.326140e+03
1.352905e+03
1.380729e+03
1.409539e+03
1.439258e+03
1.469804e+03
1.501095e+03
1.533042e+03
1.565546e+03
1.594035e+03
1.622874e+03
1.651971e+03
1.681240e+03
1.710602e+03
1.739983e+03
1.769310e+03
1.798513e+03
1.827523e+03
1.856273e+03
1.884699e+03
1.912740e+03
1.940339e+03
1.967440e+03
1.993994e+03
2.019953e+03
2.045275e+03
2.069919e+03
2.093853e+03
2.117044e+03
2.139466e+03
2.161095e+03
2.181914e+03
2.201906e+03
2.221060e+03
2.239369e+03
2.256827e+03
2.273433e+03
2.289188e+03
2.304096e+03
2.318163e+03
2.331396e+03
2.343806e+03
2.355404e+03
2.366202e+03
2.376215e+03
2.385455e+03
2.393937e+03
2.401676e+03
2.408687e+03
2.414982e+03
2.420575e+03
2.425480e+03
2.429706e+03
2.433266e+03
2.436167e+03
2.438417e+03
2.440022e+03
2.440987e+03
2.441313e+03
2.441003e+03
2.440055e+03
2.438467e+03
2.436234e+03
2.433351e+03
2.429809e+03
2.425601e+03
2.420715e+03
2.415141e+03
2.408866e+03
2.401876e+03
2.394159e+03
2.385699e+03
2.376482e+03
2.366493e+03
2.355720e+03
2.344147e+03
2.331763e+03
2.318557e+03
2.304518e+03
2.289639e+03
2.273913e+03
2.257336e+03
2.239907e+03
2.221629e+03
2.202505e+03
2.182543e+03
2.161755e+03
2.140156e+03
2.117765e+03
2.094604e+03
2.070700e+03
2.046083e+03
2.020790e+03
1.994858e+03
1.968330e+03
1.941253e+03
1.913678e+03
1.885659e+03
1.857254e+03
1.828522e+03
1.799530e+03
1.770342e+03
1.741028e+03
1.711658e+03
1.682306e+03
1.653045e+03
1.623954e+03
1.595118e+03
1.566631e+03
1.534128e+03
1.502180e+03
1.470886e+03
1.440335e+03
1.410612e+03
1.381795e+03
1.353962e+03
1.327189e+03
1.301545e+03
1.277100e+03
1.253920e+03
1.232064e+03
1.211591e+03
1.192555e+03
1.175005e+03
1.158987e+03
1.144543e+03
1.131710e+03
1.120522e+03
1.111005e+03
1.103186e+03
1.097084e+03
1.092714e+03
1.090088e+03
1.089212e+03
1.087731e+03
1.088605e+03
1.091226e+03
1.095588e+03
1.101678e+03
1.109483e+03
1.118981e+03
1.130149e+03
1.142959e+03
1.157377e+03
1.173367e+03
1.190887e+03
1.209891e+03
1.230331e+03
1.252153e+03
1.275299e+03
1.299708e+03
1.325316e+03
1.352055e+03
1.379852e+03
1.408635e+03
1.438326e+03
1.468847e+03
1.500119e+03
1.532058e+03
1.564568e+03
1.593068e+03
1.621911e+03
1.651001e+03
1.680253e+03
1.709596e+03
1.738958e+03
1.768268e+03
1.797456e+03
1.826451e+03
1.855188e+03
1.883602e+03
1.911633e+03
1.939223e+03
1.966317e+03
1.992865e+03
2.018819e+03
2.044137e+03
2.068780e+03
2.092712e+03
2.115904e+03
2.138327e+03
2.159959e+03
2.180781e+03
2.200778e+03
2.219938e+03
2.238253e+03
2.255719e+03
2.272332e+03
2.288095e+03
2.303012e+03
2.317087e+03
2.330330e+03
2.342749e+03
2.354356e+03
2.365163e+03
2.375185e+03
2.384434e+03
2.392924e+03
2.400672e+03
2.407689e+03
2.413992e+03
2.419592e+03
2.424502e+03
2.428734e+03
2.432298e+03
2.435202e+03
2.437456e+03
2.439063e+03
2.440029e+03
2.440356e+03
2.440045e+03
2.439096e+03
2.437506e+03
2.435270e+03
2.432383e+03
2.428837e+03
2.424623e+03
2.419731e+03
2.414151e+03
2.407868e+03
2.400871e+03
2.393146e+03
2.384677e+03
2.375451e+03
2.365454e+03
2.354671e+03
2.343089e+03
2.330696e+03
2.317481e+03
2.303433e+03
2.288545e+03
2.272811e+03
2.256226e+03
2.238791e+03
2.220506e+03
2.201376e+03
2.181410e+03
2.160618e+03
2.139017e+03
2.116624e+03
2.093462e+03
2.069559e+03
2.044945e+03
2.019654e+03
1.993727e+03
1.967205e+03
1.940136e+03
1.912569e+03
1.884561e+03
1.856167e+03
1.827448e+03
1.798470e+03
1.769298e+03
1.740001e+03
1.710650e+03
1.681317e+03
1.652073e+03
1.622989e+03
1.594150e+03
1.565652e+03
1.533142e+03
1.501202e+03
1.469927e+03
1.439402e+03
1.409705e+03
1.380916e+03
1.353110e+03
1.326363e+03
1.300746e+03
1.276327e+03
1.253171e+03
1.231338e+03
1.210888e+03
1.191873e+03
1.174342e+03
1.158343e+03
1.143916e+03
1.131098e+03
1.119922e+03
1.110417e+03
1.102607e+03
1.096512e+03
1.092148e+03
1.089524e+03
1.088649e+03
1.086798e+03
1.087670e+03
1.090286e+03
1.094639e+03
1.100718e+03
1.108507e+03
1.117986e+03
1.129133e+03
1.141918e+03
1.156308e+03
1.172268e+03
1.189755e+03
1.208725e+03
1.229127e+03
1.250910e+03
1.274015e+03
1.298382e+03
1.323947e+03
1.350640e+03
1.378393e+03
1.407130e+03
1.436775e+03
1.467251e+03
1.498480e+03
1.530400e+03
1.562935e+03
1.591469e+03
1.620329e+03
1.649396e+03
1.678611e+03
1.707920e+03
1.737251e+03
1.766533e+03
1.795694e+03
1.824665e+03
1.853380e+03
1.881775e+03
1.909789e+03
1.937364e+03
1.964445e+03
1.990983e+03
2.016929e+03
2.042241e+03
2.066881e+03
2.090812e+03
2.114004e+03
2.136429e+03
2.158066e+03
2.178894e+03
2.198898e+03
2.218068e+03
2.236393e+03
2.253870e+03
2.270496e+03
2.286272e+03
2.301203e+03
2.315293e+03
2.328550e+03
2.340984e+03
2.352607e+03
2.363429e+03
2.373466e+03
2.382729e+03
2.391234e+03
2.398995e+03
2.406025e+03
2.412339e+03
2.417950e+03
2.422870e+03
2.427111e+03
2.430682e+03
2.433593e+03
2.435851e+03
2.437461e+03
2.438429e+03
2.438757e+03
2.438446e+03
2.437495e+03
2.435901e+03
2.433660e+03
2.430766e+03
2.427213e+03
2.422991e+03
2.418089e+03
2.412498e+03
2.406204e+03
2.399194e+03
2.391455e+03
2.382972e+03
2.373731e+03
2.363719e+03
2.352921e+03
2.341324e+03
2.328916e+03
2.315685e+03
2.301623e+03
2.286720e+03
2.270973e+03
2.254376e+03
2.236929e+03
2.218633e+03
2.199495e+03
2.179521e+03
2.158723e+03
2.137117e+03
2.114721e+03
2.091559e+03
2.067657e+03
2.043047e+03
2.017762e+03
1.991842e+03
1.965331e+03
1.938274e+03
1.910722e+03
1.882731e+03
1.854356e+03
1.825660e+03
1.796705e+03
1.767559e+03
1.738291e+03
1.708972e+03
1.679672e+03
1.650464e+03
1.621403e+03
1.592548e+03
1.564015e+03
1.531481e+03
1.499559e+03
1.468328e+03
1.437848e+03
1.408197e+03
1.379453e+03
1.351693e+03
1.324990e+03
1.299417e+03
1.275040e+03
1.251924e+03
1.230131e+03
1.209718e+03
1.190738e+03
1.173241e+03
1.157271e+03
1.142872e+03
1.130078e+03
1.118924e+03
1.109438e+03
1.101644e+03
1.095561e+03
1.091205e+03
1.088587e+03
1.087713e+03
1.085495e+03
1.086365e+03
1.088974e+03
1.093315e+03
1.099377e+03
1.107144e+03
1.116598e+03
1.127714e+03
1.140464e+03
1.154817e+03
1.170734e+03
1.188175e+03
1.207095e+03
1.227446e+03
1.249174e+03
1.272222e+03
1.296529e+03
1.322033e+03
1.348664e+03
1.376354e+03
1.405027e+03
1.434607e+03
1.465017e+03
1.496176e+03
1.528005e+03
1.560590e+03
1.589309e+03
1.618177e+03
1.647158e+03
1.676316e+03
1.705576e+03
1.734863e+03
1.764105e+03
1.793229e+03
1.822167e+03
1.850852e+03
1.879219e+03
1.907209e+03
1.934763e+03
1.961826e+03
1.988349e+03
2.014284e+03
2.039588e+03
2.064222e+03
2.088151e+03
2.111343e+03
2.133772e+03
2.155414e+03
2.176250e+03
2.196265e+03
2.215447e+03
2.233786e+03
2.251279e+03
2.267922e+03
2.283717e+03
2.298667e+03
2.312777e+03
2.326055e+03
2.338510e+03
2.350154e+03
2.360998e+03
2.371054e+03
2.380338e+03
2.388862e+03
2.396642e+03
2.403690e+03
2.410020e+03
2.415646e+03
2.420580e+03
2.424833e+03
2.428414e+03
2.431333e+03
2.433598e+03
2.435214e+03
2.436185e+03
2.436513e+03
2.436201e+03
2.435247e+03
2.433648e+03
2.431400e+03
2.428498e+03
2.424934e+03
2.420700e+03
2.415785e+03
2.410178e+03
2.403867e+03
2.396840e+03
2.389082e+03
2.380580e+03
2.371319e+03
2.361286e+03
2.350467e+03
2.338848e+03
2.326419e+03
2.313167e+03
2.299085e+03
2.284163e+03
2.268397e+03
2.251783e+03
2.234320e+03
2.216010e+03
2.196859e+03
2.176874e+03
2.156068e+03
2.134457e+03
2.112058e+03
2.088895e+03
2.064995e+03
2.040390e+03
2.015113e+03
1.989205e+03
1.962708e+03
1.935669e+03
1.908138e+03
1.880171e+03
1.851823e+03
1.823157e+03
1.794236e+03
1.765127e+03
1.735899e+03
1.706623e+03
1.677373e+03
1.648222e+03
1.619247e+03
1.590383e+03
1.561666e+03
1.529081e+03
1.497251e+03
1.466089e+03
1.435675e+03
1.406089e+03
1.377409e+03
1.349712e+03
1.323072e+03
1.297559e+03
1.273242e+03
1.250183e+03
1.228445e+03
1.208084e+03
1.189154e+03
1.171702e+03
1.155775e+03
1.141414e+03
1.128656e+03
1.117532e+03
1.108072e+03
1.100299e+03
1.094232e+03
1.089889e+03
1.087278e+03
1.086407e+03
1.083827e+03
1.084694e+03
1.087294e+03
1.091619e+03
1.097659e+03
1.105399e+03
1.114820e+03
1.125897e+03
1.138603e+03
1.152905e+03
1.168768e+03
1.186151e+03
1.205008e+03
1.225291e+03
1.246949e+03
1.269923e+03
1.294155e+03
1.319580e+03
1.346131e+03
1.373739e+03
1.402330e+03
1.431828e+03
1.462152e+03
1.493219e+03
1.524935e+03
1.557054e+03
1.586958e+03
1.615396e+03
1.644280e+03
1.673365e+03
1.702564e+03
1.731797e+03
1.760987e+03
1.790064e+03
1.818959e+03
1.847604e+03
1.875937e+03
1.903895e+03
1.931421e+03
1.958461e+03
1.984965e+03
2.010885e+03
2.036178e+03
2.060804e+03
2.084730e+03
2.107922e+03
2.130354e+03
2.152004e+03
2.172850e+03
2.192877e+03
2.212074e+03
2.230431e+03
2.247944e+03
2.264609e+03
2.280427e+03
2.295401e+03
2.309537e+03
2.322841e+03
2.335323e+03
2.346993e+03
2.357864e+03
2.367947e+03
2.377256e+03
2.385805e+03
2.393608e+03
2.400678e+03
2.407030e+03
2.412675e+03
2.417625e+03
2.421893e+03
2.425488e+03
2.428418e+03
2.430691e+03
2.432313e+03
2.433288e+03
2.433618e+03
2.433304e+03
2.432346e+03
2.430741e+03
2.428485e+03
2.425572e+03
2.421994e+03
2.417745e+03
2.412812e+03
2.407187e+03
2.400855e+03
2.393805e+03
2.386023e+03
2.377496e+03
2.368209e+03
2.358150e+03
2.347304e+03
2.335659e+03
2.323203e+03
2.309925e+03
2.295817e+03
2.280871e+03
2.265081e+03
2.248445e+03
2.230962e+03
2.212634e+03
2.193468e+03
2.173470e+03
2.152654e+03
2.131035e+03
2.108633e+03
2.085469e+03
2.061573e+03
2.036975e+03
2.011709e+03
1.985816e+03
1.959338e+03
1.932322e+03
1.904819e+03
1.876882e+03
1.848570e+03
1.819943e+03
1.791066e+03
1.762004e+03
1.732826e+03
1.703605e+03
1.674416e+03
1.645338e+03
1.616460e+03
1.588026e+03
1.558124e+03
1.526005e+03
1.494287e+03
1.463218e+03
1.432889e+03
1.403386e+03
1.374789e+03
1.347173e+03
1.320613e+03
1.295179e+03
1.270937e+03
1.247953e+03
1.226285e+03
1.205991e+03
1.187124e+03
1.169731e+03
1.153859e+03
1.139547e+03
1.126833e+03
1.115748e+03
1.106321e+03
1.098576e+03
1.092531e+03
1.088203e+03
1.085602e+03
1.084734e+03
1.081798e+03
1.082662e+03
1.085250e+03
1.089556e+03
1.095570e+03
1.103276e+03
1.112656e+03
1.123686e+03
1.136338e+03
1.150580e+03
1.166376e+03
1.183687e+03
1.202467e+03
1.222669e+03
1.244240e+03
1.267125e+03
1.291263e+03
1.316593e+03
1.343046e+03
1.370555e+03
1.399045e+03
1.428442e+03
1.458667e+03
1.489635e+03
1.521233e+03
1.553331e+03
1.583484e+03
1.611951e+03
1.640745e+03
1.669758e+03
1.698887e+03
1.728054e+03
1.757183e+03
1.786203e+03
1.815044e+03
1.843641e+03
1.871929e+03
1.899849e+03
1.927341e+03
1.954352e+03
1.980832e+03
2.006732e+03
2.032011e+03
2.056628e+03
2.080548e+03
2.103740e+03
2.126176e+03
2.147833e+03
2.168690e+03
2.188733e+03
2.207948e+03
2.226326e+03
2.243862e+03
2.260553e+03
2.276399e+03
2.291402e+03
2.305568e+03
2.318904e+03
2.331417e+03
2.343120e+03
2.354022e+03
2.364136e+03
2.373476e+03
2.382055e+03
2.389886e+03
2.396984e+03
2.403360e+03
2.409028e+03
2.414000e+03
2.418286e+03
2.421897e+03
2.424840e+03
2.427124e+03
2.428753e+03
2.429732e+03
2.430063e+03
2.429748e+03
2.428785e+03
2.427173e+03
2.424906e+03
2.421980e+03
2.418387e+03
2.414118e+03
2.409165e+03
2.403516e+03
2.397159e+03
2.390082e+03
2.382272e+03
2.373715e+03
2.364398e+03
2.354306e+03
2.343428e+03
2.331751e+03
2.319263e+03
2.305954e+03
2.291815e+03
2.276839e+03
2.261021e+03
2.244360e+03
2.226853e+03
2.208504e+03
2.189319e+03
2.169307e+03
2.148479e+03
2.126852e+03
2.104446e+03
2.081283e+03
2.057392e+03
2.032802e+03
2.007551e+03
1.981677e+03
1.955223e+03
1.928236e+03
1.900766e+03
1.872869e+03
1.844600e+03
1.816022e+03
1.787197e+03
1.758192e+03
1.729076e+03
1.699921e+03
1.670801e+03
1.641796e+03
1.613008e+03
1.584544e+03
1.554393e+03
1.522296e+03
1.490696e+03
1.459726e+03
1.429497e+03
1.400094e+03
1.371597e+03
1.344081e+03
1.317619e+03
1.292280e+03
1.268132e+03
1.245237e+03
1.223656e+03
1.203444e+03
1.184653e+03
1.167333e+03
1.151527e+03
1.137276e+03
1.124615e+03
1.113578e+03
1.104192e+03
1.096480e+03
1.090462e+03
1.086153e+03
1.083563e+03
1.082699e+03
1.079415e+03
1.080274e+03
1.082849e+03
1.087133e+03
1.093115e+03
1.100782e+03
1.110114e+03
1.121088e+03
1.133676e+03
1.147847e+03
1.163565e+03
1.180790e+03
1.199480e+03
1.219585e+03
1.241054e+03
1.263833e+03
1.287862e+03
1.313078e+03
1.339416e+03
1.366807e+03
1.395179e+03
1.424458e+03
1.454568e+03
1.485429e+03
1.516968e+03
1.549088e+03
1.579304e+03
1.607802e+03
1.636559e+03
1.665497e+03
1.694549e+03
1.723640e+03
1.752696e+03
1.781648e+03
1.810426e+03
1.838965e+03
1.867201e+03
1.895074e+03
1.922525e+03
1.949501e+03
1.975951e+03
2.001828e+03
2.027089e+03
2.051694e+03
2.075607e+03
2.098797e+03
2.121237e+03
2.142901e+03
2.163771e+03
2.183830e+03
2.203065e+03
2.221467e+03
2.239030e+03
2.255750e+03
2.271628e+03
2.286665e+03
2.300866e+03
2.314237e+03
2.326788e+03
2.338527e+03
2.349466e+03
2.359617e+03
2.368993e+03
2.377606e+03
2.385470e+03
2.392599e+03
2.399004e+03
2.404699e+03
2.409695e+03
2.414003e+03
2.417632e+03
2.420590e+03
2.422885e+03
2.424523e+03
2.425508e+03
2.425841e+03
2.425524e+03
2.424556e+03
2.422934e+03
2.420656e+03
2.417714e+03
2.414102e+03
2.409812e+03
2.404835e+03
2.399159e+03
2.392773e+03
2.385665e+03
2.377821e+03
2.369230e+03
2.359876e+03
2.349749e+03
2.338833e+03
2.327119e+03
2.314594e+03
2.301248e+03
2.287074e+03
2.272064e+03
2.256215e+03
2.239523e+03
2.221990e+03
2.203617e+03
2.184412e+03
2.164382e+03
2.143542e+03
2.121907e+03
2.099497e+03
2.076336e+03
2.052451e+03
2.027874e+03
2.002641e+03
1.976790e+03
1.950365e+03
1.923413e+03
1.895984e+03
1.868133e+03
1.839917e+03
1.811396e+03
1.782634e+03
1.753698e+03
1.724654e+03
1.695574e+03
1.666532e+03
1.637602e+03
1.608849e+03
1.580355e+03
1.550141e+03
1.518021e+03
1.486481e+03
1.455618e+03
1.425504e+03
1.396219e+03
1.367841e+03
1.340442e+03
1.314096e+03
1.288870e+03
1.264832e+03
1.242043e+03
1.220564e+03
1.200448e+03
1.181749e+03
1.164513e+03
1.148786e+03
1.134606e+03
1.122010e+03
1.111029e+03
1.101690e+03
1.094018e+03
1.088031e+03
1.083744e+03
1.081168e+03
1.080308e+03
1.076684e+03
1.077537e+03
1.080097e+03
1.084355e+03
1.090302e+03
1.097923e+03
1.107200e+03
1.118109e+03
1.130624e+03
1.144713e+03
1.160341e+03
1.177469e+03
1.196053e+03
1.216047e+03
1.237400e+03
1.260056e+03
1.283958e+03
1.309043e+03
1.335248e+03
1.362503e+03
1.390739e+03
1.419881e+03
1.449856e+03
1.480592e+03
1.512031e+03
1.544221e+03
1.574508e+03
1.603066e+03
1.631741e+03
1.660594e+03
1.689558e+03
1.718561e+03
1.747533e+03
1.776406e+03
1.805110e+03
1.833582e+03
1.861756e+03
1.889573e+03
1.916976e+03
1.943911e+03
1.970326e+03
1.996174e+03
2.021413e+03
2.046002e+03
2.069906e+03
2.093093e+03
2.115535e+03
2.137207e+03
2.158090e+03
2.178167e+03
2.197424e+03
2.215852e+03
2.233444e+03
2.250197e+03
2.266110e+03
2.281184e+03
2.295424e+03
2.308836e+03
2.321428e+03
2.333209e+03
2.344189e+03
2.354382e+03
2.363797e+03
2.372449e+03
2.380351e+03
2.387514e+03
2.393953e+03
2.399678e+03
2.404701e+03
2.409033e+03
2.412682e+03
2.415658e+03
2.417967e+03
2.419615e+03
2.420605e+03
2.420940e+03
2.420621e+03
2.419647e+03
2.418016e+03
2.415723e+03
2.412764e+03
2.409131e+03
2.404817e+03
2.399812e+03
2.394106e+03
2.387687e+03
2.380543e+03
2.372663e+03
2.364032e+03
2.354638e+03
2.344469e+03
2.333512e+03
2.321756e+03
2.309189e+03
2.295803e+03
2.281590e+03
2.266542e+03
2.250657e+03
2.233933e+03
2.216370e+03
2.197971e+03
2.178743e+03
2.158696e+03
2.137842e+03
2.116199e+03
2.093786e+03
2.070628e+03
2.046752e+03
2.022191e+03
1.996979e+03
1.971156e+03
1.944766e+03
1.917856e+03
1.890475e+03
1.862679e+03
1.834524e+03
1.806071e+03
1.777383e+03
1.748525e+03
1.719565e+03
1.690574e+03
1.661619e+03
1.632774e+03
1.604104e+03
1.575550e+03
1.545265e+03
1.513075e+03
1.481635e+03
1.450896e+03
1.420917e+03
1.391769e+03
1.363527e+03
1.336264e+03
1.310052e+03
1.284957e+03
1.261046e+03
1.238379e+03
1.217017e+03
1.197012e+03
1.178418e+03
1.161280e+03
1.145643e+03
1.131545e+03
1.119022e+03
1.108106e+03
1.098823e+03
1.091197e+03
1.085245e+03
1.080984e+03
1.078423e+03
1.077568e+03
1.073613e+03
1.074461e+03
1.077002e+03
1.081232e+03
1.087138e+03
1.094708e+03
1.103922e+03
1.114759e+03
1.127190e+03
1.141186e+03
1.156713e+03
1.173730e+03
1.192196e+03
1.212064e+03
1.233284e+03
1.255802e+03
1.279561e+03
1.304498e+03
1.330551e+03
1.357653e+03
1.385732e+03
1.414718e+03
1.444537e+03
1.475115e+03
1.506384e+03
1.538302e+03
1.569535e+03
1.597747e+03
1.626312e+03
1.655065e+03
1.683923e+03
1.712825e+03
1.741700e+03
1.770482e+03
1.799102e+03
1.827495e+03
1.855599e+03
1.883352e+03
1.910699e+03
1.937585e+03
1.963958e+03
1.989773e+03
2.014985e+03
2.039555e+03
2.063447e+03
2.086628e+03
2.109071e+03
2.130750e+03
2.151646e+03
2.171741e+03
2.191021e+03
2.209477e+03
2.227101e+03
2.243889e+03
2.259840e+03
2.274955e+03
2.289238e+03
2.302694e+03
2.315331e+03
2.327157e+03
2.338184e+03
2.348421e+03
2.357881e+03
2.366576e+03
2.374518e+03
2.381721e+03
2.388195e+03
2.393954e+03
2.399007e+03
2.403365e+03
2.407038e+03
2.410033e+03
2.412357e+03
2.414015e+03
2.415012e+03
2.415349e+03
2.415028e+03
2.414047e+03
2.412405e+03
2.410097e+03
2.407119e+03
2.403463e+03
2.399122e+03
2.394087e+03
2.388347e+03
2.381891e+03
2.374709e+03
2.366787e+03
2.358113e+03
2.348675e+03
2.338460e+03
2.327458e+03
2.315655e+03
2.303043e+03
2.289613e+03
2.275356e+03
2.260268e+03
2.244344e+03
2.227584e+03
2.209989e+03
2.191562e+03
2.172311e+03
2.152245e+03
2.131378e+03
2.109728e+03
2.087314e+03
2.064161e+03
2.040297e+03
2.015755e+03
1.990569e+03
1.964780e+03
1.938431e+03
1.911569e+03
1.884245e+03
1.856512e+03
1.828428e+03
1.800052e+03
1.771449e+03
1.742682e+03
1.713819e+03
1.684928e+03
1.656079e+03
1.627334e+03
1.598774e+03
1.570565e+03
1.539334e+03
1.507417e+03
1.476147e+03
1.445566e+03
1.415743e+03
1.386752e+03
1.358666e+03
1.331557e+03
1.305496e+03
1.280549e+03
1.256781e+03
1.234254e+03
1.213023e+03
1.193145e+03
1.174669e+03
1.157642e+03
1.142107e+03
1.128102e+03
1.115662e+03
1.104819e+03
1.095598e+03
1.088023e+03
1.082112e+03
1.077880e+03
1.075336e+03
1.074488e+03
1.070211e+03
1.071052e+03
1.073574e+03
1.077771e+03
1.083633e+03
1.091146e+03
1.100290e+03
1.111045e+03
1.123385e+03
1.137278e+03
1.152690e+03
1.169585e+03
1.187919e+03
1.207646e+03
1.228719e+03
1.251082e+03
1.274680e+03
1.299453e+03
1.325337e+03
1.352265e+03
1.380170e+03