<?xml version="1.0"?>
<VTKFile type="UnstructuredGrid" version="0.1">
<UnstructuredGrid>
<FieldData>
<DataArray Name="TIME" type="Float64" format="ascii" NumberOfTuples="1">
0.000000e+00
</DataArray>
</FieldData>
<FieldData>
<DataArray Name="CYCLE" type="Int32" format="ascii" NumberOfTuples="1">
0
</DataArray>
</FieldData>
<Piece NumberOfPoints="22801" NumberOfCells="22500">
<Points>
<DataArray NumberOfComponents="3" type="Float64" format="ascii">
0.000000e+00 0.000000e+00 0.000000e+00
4.000000e+00 0.000000e+00 0.000000e+00
8.000000e+00 0.000000e+00 0.000000e+00
1.200000e+01 0.000000e+00 0.000000e+00
1.600000e+01 0.000000e+00 0.000000e+00
2.000000e+01 0.000000e+00 0.000000e+00
2.400000e+01 0.000000e+00 0.000000e+00
2.800000e+01 0.000000e+00 0.000000e+00
3.200000e+01 0.000000e+00 0.000000e+00
3.600000e+01 0.000000e+00 0.000000e+00
4.000000e+01 0.000000e+00 0.000000e+00
4.400000e+01 0.000000e+00 0.000000e+00
4.800000e+01 0.000000e+00 0.000000e+00
5.200000e+01 0.000000e+00 0.000000e+00
5.600000e+01 0.000000e+00 0.000000e+00
6.000000e+01 0.000000e+00 0.000000e+00
6.400000e+01 0.000000e+00 0.000000e+00
6.800000e+01 0.000000e+00 0.000000e+00
7.200000e+01 0.000000e+00 0.000000e+00
7.600000e+01 0.000000e+00 0.000000e+00
8.000000e+01 0.000000e+00 0.000000e+00
8.400000e+01 0.000000e+00 0.000000e+00
8.800000e+01 0.000000e+00 0.000000e+00
9.200000e+01 0.000000e+00 0.000000e+00
9.600000e+01 0.000000e+00 0.000000e+00
1.000000e+02 0.000000e+00 0.000000e+00
1.040000e+02 0.000000e+00 0.000000e+00
1.080000e+02 0.000000e+00 0.000000e+00
1.120000e+02 0.000000e+00 0.000000e+00
1.160000e+02 0.000000e+00 0.000000e+00
1.200000e+02 0.000000e+00 0.000000e+00
1.240000e+02 0.000000e+00 0.000000e+00
1.280000e+02 0.000000e+00 0.000000e+00
1.320000e+02 0.000000e+00 0.000000e+00
1.360000e+02 0.000000e+00 0.000000e+00
1.400000e+02 0.000000e+00 0.000000e+00
1.440000e+02 0.000000e+00 0.000000e+00
1.480000e+02 0.000000e+00 0.000000e+00
1.520000e+02 0.000000e+00 0.000000e+00
1.560000e+02 0.000000e+00 0.000000e+00
1.600000e+02 0.000000e+00 0.000000e+00
1.640000e+02 0.000000e+00 0.000000e+00
1.680000e+02 0.000000e+00 0.000000e+00
1.720000e+02 0.000000e+00 0.000000e+00
1.760000e+02 0.000000e+00 0.000000e+00
1.800000e+02 0.000000e+00 0.000000e+00
1.840000e+02 0.000000e+00 0.000000e+00
1.880000e+02 0.000000e+00 0.000000e+00
1.920000e+02 0.000000e+00 0.000000e+00
1.960000e+02 0.000000e+00 0.000000e+00
2.000000e+02 0.000000e+00 0.000000e+00
2.040000e+02 0.000000e+00 0.000000e+00
2.080000e+02 0.000000e+00 0.000000e+00
2.120000e+02 0.000000e+00 0.000000e+00
2.160000e+02 0.000000e+00 0.000000e+00
2.200000e+02 0.000000e+00 0.000000e+00
2.240000e+02 0.000000e+00 0.000000e+00
2.280000e+02 0.000000e+00 0.000000e+00
2.320000e+02 0.000000e+00 0.000000e+00
2.360000e+02 0.000000e+00 0.000000e+00
2.400000e+02 0.000000e+00 0.000000e+00
2.440000e+02 0.000000e+00 0.000000e+00
2.480000e+02 0.000000e+00 0.000000e+00
2.520000e+02 0.000000e+00 0.000000e+00
2.560000e+02 0.000000e+00 0.000000e+00
2.600000e+02 0.000000e+00 0.000000e+00
2.640000e+02 0.000000e+00 0.000000e+00
2.680000e+02 0.000000e+00 0.000000e+00
2.720000e+02 0.000000e+00 0.000000e+00
2.760000e+02 0.000000e+00 0.000000e+00
2.800000e+02 0.000000e+00 0.000000e+00
2.840000e+02 0.000000e+00 0.000000e+00
2.880000e+02 0.000000e+00 0.000000e+00
2.920000e+02 0.000000e+00 0.000000e+00
2.960000e+02 0.000000e+00 0.000000e+00
3.000000e+02 0.000000e+00 0.000000e+00
3.040000e+02 0.000000e+00 0.000000e+00
3.080000e+02 0.000000e+00 0.000000e+00
3.120000e+02 0.000000e+00 0.000000e+00
3.160000e+02 0.000000e+00 0.000000e+00
3.200000e+02 0.000000e+00 0.000000e+00
3.240000e+02 0.000000e+00 0.000000e+00
3.280000e+02 0.000000e+00 0.000000e+00
3.320000e+02 0.000000e+00 0.000000e+00
3.360000e+02 0.000000e+00 0.000000e+00
3.400000e+02 0.000000e+00 0.000000e+00
3.440000e+02 0.000000e+00 0.000000e+00
3.480000e+02 0.000000e+00 0.000000e+00
3.520000e+02 0.000000e+00 0.000000e+00
3.560000e+02 0.000000e+00 0.000000e+00
3.600000e+02 0.000000e+00 0.000000e+00
3.640000e+02 0.000000e+00 0.000000e+00
3.680000e+02 0.000000e+00 0.000000e+00
3.720000e+02 0.000000e+00 0.000000e+00
3.760000e+02 0.000000e+00 0.000000e+00
3.800000e+02 0.000000e+00 0.000000e+00
3.840000e+02 0.000000e+00 0.000000e+00
3.880000e+02 0.000000e+00 0.000000e+00
3.920000e+02 0.000000e+00 0.000000e+00
3.960000e+02 0.000000e+00 0.000000e+00
4.000000e+02 0.000000e+00 0.000000e+00
4.040000e+02 0.000000e+00 0.000000e+00
4.080000e+02 0.000000e+00 0.000000e+00
4.120000e+02 0.000000e+00 0.000000e+00
4.160000e+02 0.000000e+00 0.000000e+00
4.200000e+02 0.000000e+00 0.000000e+00
4.240000e+02 0.000000e+00 0.000000e+00
4.280000e+02 0.000000e+00 0.000000e+00
4.320000e+02 0.000000e+00 0.000000e+00
4.360000e+02 0.000000e+00 0.000000e+00
4.400000e+02 0.000000e+00 0.000000e+00
4.440000e+02 0.000000e+00 0.000000e+00
4.480000e+02 0.000000e+00 0.000000e+00
4.520000e+02 0.000000e+00 0.000000e+00
4.560000e+02 0.000000e+00 0.000000e+00
4.600000e+02 0.000000e+00 0.000000e+00
4.640000e+02 0.000000e+00 0.000000e+00
4.680000e+02 0.000000e+00 0.000000e+00
4.720000e+02 0.000000e+00 0.000000e+00
4.760000e+02 0.000000e+00 0.000000e+00
4.800000e+02 0.000000e+00 0.000000e+00
4.840000e+02 0.000000e+00 0.000000e+00
4.880000e+02 0.000000e+00 0.000000e+00
4.920000e+02 0.000000e+00 0.000000e+00
4.960000e+02 0.000000e+00 0.000000e+00
5.000000e+02 0.000000e+00 0.000000e+00
5.040000e+02 0.000000e+00 0.000000e+00
5.080000e+02 0.000000e+00 0.000000e+00
5.120000e+02 0.000000e+00 0.000000e+00
5.160000e+02 0.000000e+00 0.000000e+00
5.200000e+02 0.000000e+00 0.000000e+00
5.240000e+02 0.000000e+00 0.000000e+00
5.280000e+02 0.000000e+00 0.000000e+00
5.320000e+02 0.000000e+00 0.000000e+00
5.360000e+02 0.000000e+00 0.000000e+00
5.400000e+02 0.000000e+00 0.000000e+00
5.440000e+02 0.000000e+00 0.000000e+00
5.480000e+02 0.000000e+00 0.000000e+00
5.520000e+02 0.000000e+00 0.000000e+00
5.560000e+02 0.000000e+00 0.000000e+00
5.600000e+02 0.000000e+00 0.000000e+00
5.640000e+02 0.000000e+00 0.000000e+00
5.680000e+02 0.000000e+00 0.000000e+00
5.720000e+02 0.000000e+00 0.000000e+00
5.760000e+02 0.000000e+00 0.000000e+00
5.800000e+02 0.000000e+00 0.000000e+00
5.840000e+02 0.000000e+00 0.000000e+00
5.880000e+02 0.000000e+00 0.000000e+00
5.920000e+02 0.000000e+00 0.000000e+00
5.960000e+02 0.000000e+00 0.000000e+00
6.000000e+02 0.000000e+00 0.000000e+00
0.000000e+00 4.000000e+00 0.000000e+00
4.000000e+00 4.000000e+00 0.000000e+00
8.000000e+00 4.000000e+00 0.000000e+00
1.200000e+01 4.000000e+00 0.000000e+00
1.600000e+01 4.000000e+00 0.000000e+00
2.000000e+01 4.000000e+00 0.000000e+00
2.400000e+01 4.000000e+00 0.000000e+00
2.800000e+01 4.000000e+00 0.000000e+00
3.200000e+01 4.000000e+00 0.000000e+00
3.600000e+01 4.000000e+00 0.000000e+00
4.000000e+01 4.000000e+00 0.000000e+00
4.400000e+01 4.000000e+00 0.000000e+00
4.800000e+01 4.000000e+00 0.000000e+00
5.200000e+01 4.000000e+00 0.000000e+00
5.600000e+01 4.000000e+00 0.000000e+00
6.000000e+01 4.000000e+00 0.000000e+00
6.400000e+01 4.000000e+00 0.000000e+00
6.800000e+01 4.000000e+00 0.000000e+00
7.200000e+01 4.000000e+00 0.000000e+00
7.600000e+01 4.000000e+00 0.000000e+00
8.000000e+01 4.000000e+00 0.000000e+00
8.400000e+01 4.000000e+00 0.000000e+00
8.800000e+01 4.000000e+00 0.000000e+00
9.200000e+01 4.000000e+00 0.000000e+00
9.600000e+01 4.000000e+00 0.000000e+00
1.000000e+02 4.000000e+00 0.000000e+00
1.040000e+02 4.000000e+00 0.000000e+00
1.080000e+02 4.000000e+00 0.000000e+00
1.120000e+02 4.000000e+00 0.000000e+00
1.160000e+02 4.000000e+00 0.000000e+00
1.200000e+02 4.000000e+00 0.000000e+00
1.240000e+02 4.000000e+00 0.000000e+00
1.280000e+02 4.000000e+00 0.000000e+00
1.320000e+02 4.000000e+00 0.000000e+00
1.360000e+02 4.000000e+00 0.000000e+00
1.400000e+02 4.000000e+00 0.000000e+00
1.440000e+02 4.000000e+00 0.000000e+00
1.480000e+02 4.000000e+00 0.000000e+00
1.520000e+02 4.000000e+00 0.000000e+00
1.560000e+02 4.000000e+00 0.000000e+00
1.600000e+02 4.000000e+00 0.000000e+00
1.640000e+02 4.000000e+00 0.000000e+00
1.680000e+02 4.000000e+00 0.000000e+00
1.720000e+02 4.000000e+00 0.000000e+00
1.760000e+02 4.000000e+00 0.000000e+00
1.800000e+02 4.000000e+00 0.000000e+00
1.840000e+02 4.000000e+00 0.000000e+00
1.880000e+02 4.000000e+00 0.000000e+00
1.920000e+02 4.000000e+00 0.000000e+00
1.960000e+02 4.000000e+00 0.000000e+00
2.000000e+02 4.000000e+00 0.000000e+00
2.040000e+02 4.000000e+00 0.000000e+00
2.080000e+02 4.000000e+00 0.000000e+00
2.120000e+02 4.000000e+00 0.000000e+00
2.160000e+02 4.000000e+00 0.000000e+00
2.200000e+02 4.000000e+00 0.000000e+00
2.240000e+02 4.000000e+00 0.000000e+00
2.280000e+02 4.000000e+00 0.000000e+00
2.320000e+02 4.000000e+00 0.000000e+00
2.360000e+02 4.000000e+00 0.000000e+00
2.400000e+02 4.000000e+00 0.000000e+00
2.440000e+02 4.000000e+00 0.000000e+00
2.480000e+02 4.000000e+00 0.000000e+00
2.520000e+02 4.000000e+00 0.000000e+00
2.560000e+02 4.000000e+00 0.000000e+00
2.600000e+02 4.000000e+00 0.000000e+00
2.640000e+02 4.000000e+00 0.000000e+00
2.680000e+02 4.000000e+00 0.000000e+00
2.720000e+02 4.000000e+00 0.000000e+00
2.760000e+02 4.000000e+00 0.000000e+00
2.800000e+02 4.000000e+00 0.000000e+00
2.840000e+02 4.000000e+00 0.000000e+00
2.880000e+02 4.000000e+00 0.000000e+00
2.920000e+02 4.000000e+00 0.000000e+00
2.960000e+02 4.000000e+00 0.000000e+00
3.000000e+02 4.000000e+00 0.000000e+00
3.040000e+02 4.000000e+00 0.000000e+00
3.080000e+02 4.000000e+00 0.000000e+00
3.120000e+02 4.000000e+00 0.000000e+00
3.160000e+02 4.000000e+00 0.000000e+00
3.200000e+02 4.000000e+00 0.000000e+00
3.240000e+02 4.000000e+00 0.000000e+00
3.280000e+02 4.000000e+00 0.000000e+00
3.320000e+02 4.000000e+00 0.000000e+00
3.360000e+02 4.000000e+00 0.000000e+00
3.400000e+02 4.000000e+00 0.000000e+00
3.440000e+02 4.000000e+00 0.000000e+00
3.480000e+02 4.000000e+00 0.000000e+00
3.520000e+02 4.000000e+00 0.000000e+00
3.560000e+02 4.000000e+00 0.000000e+00
3.600000e+02 4.000000e+00 0.000000e+00
3.640000e+02 4.000000e+00 0.000000e+00
3.680000e+02 4.000000e+00 0.000000e+00
[...]
<PointData>
<DataArray Name="T" type="Float64" NumberOfComponents="1" format="ascii">
1.235912e+03
1.236471e+03
1.238147e+03
1.240935e+03
1.244829e+03
1.249821e+03
1.255899e+03
1.263048e+03
1.271253e+03
1.280495e+03
1.290752e+03
1.302001e+03
1.314216e+03
1.327371e+03
1.341434e+03
1.356375e+03
1.372159e+03
1.388751e+03
1.406115e+03
1.424211e+03
1.443000e+03
1.462440e+03
1.482487e+03
1.503096e+03
1.524218e+03
1.545797e+03
1.564805e+03
1.584157e+03
1.603804e+03
1.623697e+03
1.643792e+03
1.664047e+03
1.684423e+03
1.704877e+03
1.725371e+03
1.745864e+03
1.766319e+03
1.786696e+03
1.806959e+03
1.827071e+03
1.846997e+03
1.866703e+03
1.886155e+03
1.905321e+03
1.924171e+03
1.942674e+03
1.960803e+03
1.978531e+03
1.995831e+03
2.012681e+03
2.029055e+03
2.044934e+03
2.060297e+03
2.075123e+03
2.089397e+03
2.103101e+03
2.116219e+03
2.128739e+03
2.140645e+03
2.151927e+03
2.162574e+03
2.172576e+03
2.181923e+03
2.190608e+03
2.198623e+03
2.205962e+03
2.212619e+03
2.218588e+03
2.223867e+03
2.228450e+03
2.232334e+03
2.235518e+03
2.237998e+03
2.239774e+03
2.240843e+03
2.241206e+03
2.240862e+03
2.239812e+03
2.238055e+03
2.235593e+03
2.232429e+03
2.228563e+03
2.223999e+03
2.218740e+03
2.212789e+03
2.206151e+03
2.198832e+03
2.190836e+03
2.182170e+03
2.172842e+03
2.162860e+03
2.152232e+03
2.140969e+03
2.129082e+03
2.116582e+03
2.103482e+03
2.089797e+03
2.075542e+03
2.060734e+03
2.045391e+03
2.029530e+03
2.013174e+03
1.996342e+03
1.979059e+03
1.961349e+03
1.943237e+03
1.924750e+03
1.905917e+03
1.886767e+03
1.867330e+03
1.847639e+03
1.827728e+03
1.807629e+03
1.787379e+03
1.767015e+03
1.746572e+03
1.726090e+03
1.705607e+03
1.685163e+03
1.664798e+03
1.644551e+03
1.624464e+03
1.604579e+03
1.584939e+03
1.565593e+03
1.546591e+03
1.525018e+03
1.503902e+03
1.483298e+03
1.463255e+03
1.443819e+03
1.425034e+03
1.406941e+03
1.389580e+03
1.372990e+03
1.357207e+03
1.342268e+03
1.328206e+03
1.315053e+03
1.302838e+03
1.291590e+03
1.281333e+03
1.272092e+03
1.263888e+03
1.256738e+03
1.250661e+03
1.245669e+03
1.241775e+03
1.238987e+03
1.237311e+03
1.236752e+03
1.235725e+03
1.236284e+03
1.237959e+03
1.240746e+03
1.244640e+03
1.249630e+03
1.255706e+03
1.262854e+03
1.271056e+03
1.280295e+03
1.290549e+03
1.301795e+03
1.314008e+03
1.327158e+03
1.341218e+03
1.356155e+03
1.371935e+03
1.388523e+03
1.405882e+03
1.423974e+03
1.442758e+03
1.462194e+03
1.482237e+03
1.502843e+03
1.523964e+03
1.545545e+03
1.564555e+03
1.583908e+03
1.603553e+03
1.623443e+03
1.643534e+03
1.663785e+03
1.684155e+03
1.704605e+03
1.725094e+03
1.745584e+03
1.766034e+03
1.786407e+03
1.806666e+03
1.826775e+03
1.846697e+03
1.866399e+03
1.885848e+03
1.905010e+03
1.923857e+03
1.942357e+03
1.960483e+03
1.978208e+03
1.995506e+03
2.012352e+03
2.028725e+03
2.044601e+03
2.059961e+03
2.074786e+03
2.089058e+03
2.102760e+03
2.115877e+03
2.128394e+03
2.140300e+03
2.151581e+03
2.162226e+03
2.172227e+03
2.181573e+03
2.190257e+03
2.198271e+03
2.205609e+03
2.212265e+03
2.218234e+03
2.223512e+03
2.228095e+03
2.231979e+03
2.235162e+03
2.237642e+03
2.239418e+03
2.240487e+03
2.240850e+03
2.240506e+03
2.239455e+03
2.237699e+03
2.235238e+03
2.232073e+03
2.228208e+03
2.223644e+03
2.218385e+03
2.212436e+03
2.205798e+03
2.198479e+03
2.190484e+03
2.181820e+03
2.172493e+03
2.162511e+03
2.151885e+03
2.140623e+03
2.128737e+03
2.116239e+03
2.103141e+03
2.089458e+03
2.075205e+03
2.060399e+03
2.045057e+03
2.029199e+03
2.012845e+03
1.996016e+03
1.978736e+03
1.961029e+03
1.942920e+03
1.924436e+03
1.905606e+03
1.886459e+03
1.867026e+03
1.847339e+03
1.827431e+03
1.807336e+03
1.787090e+03
1.766730e+03
1.746291e+03
1.725814e+03
1.705335e+03
1.684896e+03
1.664535e+03
1.644293e+03
1.624210e+03
1.604328e+03
1.584690e+03
1.565343e+03
1.546339e+03
1.524764e+03
1.503649e+03
1.483047e+03
1.463009e+03
1.443577e+03
1.424797e+03
1.406708e+03
1.389351e+03
1.372765e+03
1.356987e+03
1.342052e+03
1.327994e+03
1.314844e+03
1.302632e+03
1.291387e+03
1.281133e+03
1.271895e+03
1.263692e+03
1.256545e+03
1.250469e+03
1.245479e+03
1.241586e+03
1.238799e+03
1.237124e+03
1.236565e+03
1.235164e+03
1.235722e+03
1.237396e+03
1.240181e+03
1.244071e+03
1.249057e+03
1.255128e+03
1.262269e+03
1.270465e+03
1.279697e+03
1.289942e+03
1.301179e+03
1.313382e+03
1.326522e+03
1.340570e+03
1.355495e+03
1.371263e+03
1.387839e+03
1.405185e+03
1.423263e+03
1.442033e+03
1.461454e+03
1.481485e+03
1.502082e+03
1.523201e+03
1.544789e+03
1.563807e+03
1.583164e+03
1.602804e+03
1.622682e+03
1.642759e+03
1.662996e+03
1.683353e+03
1.703790e+03
1.724266e+03
1.744743e+03
1.765181e+03
1.785542e+03
1.805789e+03
1.825886e+03
1.845797e+03
1.865488e+03
1.884926e+03
1.904078e+03
1.922915e+03
1.941406e+03
1.959523e+03
1.977239e+03
1.994529e+03
2.011368e+03
2.027733e+03
2.043602e+03
2.058956e+03
2.073775e+03
2.088041e+03
2.101737e+03
2.114849e+03
2.127362e+03
2.139263e+03
2.150540e+03
2.161182e+03
2.171179e+03
2.180522e+03
2.189203e+03
2.197215e+03
2.204551e+03
2.211205e+03
2.217172e+03
2.222448e+03
2.227030e+03
2.230913e+03
2.234095e+03
2.236575e+03
2.238350e+03
2.239419e+03
2.239781e+03
2.239438e+03
2.238387e+03
2.236631e+03
2.234170e+03
2.231007e+03
2.227143e+03
2.222580e+03
2.217323e+03
2.211375e+03
2.204740e+03
2.197423e+03
2.189430e+03
2.180769e+03
2.171445e+03
2.161467e+03
2.150844e+03
2.139586e+03
2.127704e+03
2.115210e+03
2.102118e+03
2.088440e+03
2.074193e+03
2.059393e+03
2.044058e+03
2.028207e+03
2.011860e+03
1.995039e+03
1.977767e+03
1.960068e+03
1.941968e+03
1.923494e+03
1.904673e+03
1.885536e+03
1.866114e+03
1.846438e+03
1.826541e+03
1.806458e+03
1.786224e+03
1.765875e+03
1.745449e+03
1.724984e+03
1.704519e+03
1.684093e+03
1.663745e+03
1.643517e+03
1.623448e+03
1.603578e+03
1.583945e+03
1.564594e+03
1.545582e+03
1.524000e+03
1.502886e+03
1.482294e+03
1.462268e+03
1.442851e+03
1.424084e+03
1.406009e+03
1.388665e+03
1.372092e+03
1.356326e+03
1.341403e+03
1.327356e+03
1.314217e+03
1.302015e+03
1.290779e+03
1.280534e+03
1.271303e+03
1.263107e+03
1.255966e+03
1.249895e+03
1.244909e+03
1.241019e+03
1.238234e+03
1.236561e+03
1.236002e+03
1.234230e+03
1.234787e+03
1.236458e+03
1.239240e+03
1.243124e+03
1.248104e+03
1.254166e+03
1.261297e+03
1.269482e+03
1.278701e+03
1.288932e+03
1.300154e+03
1.312340e+03
1.325463e+03
1.339492e+03
1.354398e+03
1.370145e+03
1.386699e+03
1.404023e+03
1.422078e+03
1.440825e+03
1.460223e+03
1.480230e+03
1.500805e+03
1.521917e+03
1.543526e+03
1.562570e+03
1.581938e+03
1.601564e+03
1.621417e+03
1.641470e+03
1.661684e+03
1.682018e+03
1.702432e+03
1.722887e+03
1.743342e+03
1.763759e+03
1.784100e+03
1.804328e+03
1.824405e+03
1.844298e+03
1.863971e+03
1.883391e+03
1.902527e+03
1.921347e+03
1.939822e+03
1.957924e+03
1.975626e+03
1.992902e+03
2.009728e+03
2.026081e+03
2.041939e+03
2.057282e+03
2.072090e+03
2.086346e+03
2.100034e+03
2.113137e+03
2.125642e+03
2.137536e+03
2.148806e+03
2.159442e+03
2.169434e+03
2.178772e+03
2.187448e+03
2.195456e+03
2.202788e+03
2.209438e+03
2.215403e+03
2.220677e+03
2.225255e+03
2.229137e+03
2.232318e+03
2.234796e+03
2.236570e+03
2.237638e+03
2.238001e+03
2.237657e+03
2.236607e+03
2.234852e+03
2.232393e+03
2.229231e+03
2.225368e+03
2.220808e+03
2.215553e+03
2.209608e+03
2.202976e+03
2.195663e+03
2.187675e+03
2.179018e+03
2.169698e+03
2.159726e+03
2.149110e+03
2.137858e+03
2.125984e+03
2.113498e+03
2.100413e+03
2.086745e+03
2.072507e+03
2.057718e+03
2.042393e+03
2.026554e+03
2.010219e+03
1.993411e+03
1.976153e+03
1.958468e+03
1.940383e+03
1.921924e+03
1.903120e+03
1.884000e+03
1.864595e+03
1.844937e+03
1.825059e+03
1.804995e+03
1.784781e+03
1.764452e+03
1.744047e+03
1.723603e+03
1.703160e+03
1.682755e+03
1.662431e+03
1.642226e+03
1.622182e+03
1.602336e+03
1.582717e+03
1.563355e+03
1.544317e+03
1.522714e+03
1.501607e+03
1.481037e+03
1.461035e+03
1.441641e+03
1.422897e+03
1.404845e+03
1.387524e+03
1.370972e+03
1.355227e+03
1.340323e+03
1.326294e+03
1.313173e+03
1.300988e+03
1.289767e+03
1.279536e+03
1.270317e+03
1.262133e+03
1.255002e+03
1.248939e+03
1.243960e+03
1.240076e+03
1.237295e+03
1.235623e+03
1.235066e+03
1.232924e+03
1.233481e+03
1.235149e+03
1.237924e+03
1.241802e+03
1.246771e+03
1.252822e+03
1.259939e+03
1.268108e+03
1.277309e+03
1.287521e+03
1.298722e+03
1.310884e+03
1.323982e+03
1.337986e+03
1.352864e+03
1.368582e+03
1.385106e+03
1.402399e+03
1.420423e+03
1.439137e+03
1.458502e+03
1.478473e+03
1.499010e+03
1.520070e+03
1.541722e+03
1.560891e+03
1.580266e+03
1.599835e+03
1.619649e+03
1.639667e+03
1.659848e+03
1.680150e+03
1.700534e+03
1.720958e+03
1.741384e+03
1.761772e+03
1.782085e+03
1.802284e+03
1.822335e+03
1.842201e+03
1.861849e+03
1.881244e+03
1.900356e+03
1.919154e+03
1.937607e+03
1.955688e+03
1.973370e+03
1.990627e+03
2.007435e+03
2.023771e+03
2.039612e+03
2.054939e+03
2.069733e+03
2.083976e+03
2.097651e+03
2.110743e+03
2.123237e+03
2.135120e+03
2.146381e+03
2.157008e+03
2.166992e+03
2.176323e+03
2.184992e+03
2.192994e+03
2.200321e+03
2.206967e+03
2.212927e+03
2.218197e+03
2.222773e+03
2.226652e+03
2.229830e+03
2.232307e+03
2.234080e+03
2.235148e+03
2.235510e+03
2.235166e+03
2.234117e+03
2.232363e+03
2.229905e+03
2.226745e+03
2.222885e+03
2.218328e+03
2.213077e+03
2.207135e+03
2.200509e+03
2.193201e+03
2.185218e+03
2.176567e+03
2.167256e+03
2.157291e+03
2.146683e+03
2.135441e+03
2.123577e+03
2.111102e+03
2.098029e+03
2.084373e+03
2.070149e+03
2.055374e+03
2.040065e+03
2.024242e+03
2.007924e+03
1.991134e+03
1.973895e+03
1.956230e+03
1.938166e+03
1.919729e+03
1.900948e+03
1.881851e+03
1.862471e+03
1.842838e+03
1.822986e+03
1.802949e+03
1.782763e+03
1.762463e+03
1.742087e+03
1.721672e+03
1.701259e+03
1.680885e+03
1.660592e+03
1.640420e+03
1.620410e+03
1.600604e+03
1.581042e+03
1.561673e+03
1.542510e+03
1.520865e+03
1.499810e+03
1.479278e+03
1.459311e+03
1.439950e+03
1.421239e+03
1.403219e+03
1.385928e+03
1.369406e+03
1.353690e+03
1.338814e+03
1.324811e+03
1.311714e+03
1.299552e+03
1.288353e+03
1.278141e+03
1.268941e+03
1.260772e+03
1.253655e+03
1.247604e+03
1.242635e+03
1.238758e+03
1.235982e+03
1.234314e+03
1.233758e+03
1.231251e+03
1.231806e+03
1.233470e+03
1.236238e+03
1.240106e+03
1.245063e+03
1.251098e+03
1.258198e+03
1.266346e+03
1.275525e+03
1.285712e+03
1.296884e+03
1.309018e+03
1.322084e+03
1.336054e+03
1.350896e+03
1.366578e+03
1.383063e+03
1.400317e+03
1.418299e+03
1.436972e+03
1.456293e+03
1.476220e+03
1.496706e+03
1.517700e+03
1.539051e+03
1.559015e+03
1.578106e+03
1.597611e+03
1.617376e+03
1.637351e+03
1.657491e+03
1.677753e+03
1.698098e+03
1.718483e+03
1.738871e+03
1.759222e+03
1.779498e+03
1.799662e+03
1.819677e+03
1.839510e+03
1.859125e+03
1.878489e+03
1.897570e+03
1.916338e+03
1.934763e+03
1.952817e+03
1.970473e+03
1.987706e+03
2.004490e+03
2.020803e+03
2.036624e+03
2.051932e+03
2.066707e+03
2.080932e+03
2.094591e+03
2.107667e+03
2.120147e+03
2.132017e+03
2.143266e+03
2.153882e+03
2.163855e+03
2.173177e+03
2.181838e+03
2.189832e+03
2.197151e+03
2.203791e+03
2.209746e+03
2.215011e+03
2.219583e+03
2.223459e+03
2.226635e+03
2.229109e+03
2.230881e+03
2.231948e+03
2.232310e+03
2.231966e+03
2.230918e+03
2.229165e+03
2.226709e+03
2.223552e+03
2.219695e+03
2.215142e+03
2.209896e+03
2.203959e+03
2.197338e+03
2.190038e+03
2.182063e+03
2.173420e+03
2.164118e+03
2.154164e+03
2.143567e+03
2.132337e+03
2.120486e+03
2.108025e+03
2.094967e+03
2.081327e+03
2.067121e+03
2.052364e+03
2.037075e+03
2.021272e+03
2.004977e+03
1.988210e+03
1.970996e+03
1.953357e+03
1.935319e+03
1.916911e+03
1.898159e+03
1.879093e+03
1.859744e+03
1.840144e+03
1.820326e+03
1.800323e+03
1.780173e+03
1.759909e+03
1.739570e+03
1.719194e+03
1.698819e+03
1.678485e+03
1.658232e+03
1.638101e+03
1.618134e+03
1.598376e+03
1.578878e+03
1.559794e+03
1.539836e+03
1.518491e+03
1.497502e+03
1.477021e+03
1.457099e+03
1.437781e+03
1.419112e+03
1.401132e+03
1.383882e+03
1.367398e+03
1.351719e+03
1.336878e+03
1.322909e+03
1.309844e+03
1.297712e+03
1.286539e+03
1.276353e+03
1.267175e+03
1.259027e+03
1.251927e+03
1.245892e+03
1.240935e+03
1.237068e+03
1.234299e+03
1.232635e+03
1.232080e+03
1.229213e+03
1.229766e+03
1.231424e+03
1.234185e+03
1.238040e+03
1.242982e+03
1.248999e+03
1.256077e+03
1.264201e+03
1.273351e+03
1.283507e+03
1.294646e+03
1.306744e+03
1.319771e+03
1.333700e+03
1.348499e+03
1.364135e+03
1.380574e+03
1.397779e+03
1.415711e+03
1.434333e+03
1.453602e+03
1.473476e+03
1.493909e+03
1.514837e+03
1.536181e+03
1.556320e+03
1.575435e+03
1.594882e+03
1.614598e+03
1.634524e+03
1.654615e+03
1.674830e+03
1.695126e+03
1.715465e+03
1.735806e+03
1.756111e+03
1.776342e+03
1.796463e+03
1.816436e+03
1.836227e+03
1.855802e+03
1.875127e+03
1.894171e+03
1.912903e+03
1.931294e+03
1.949314e+03
1.966939e+03
1.984141e+03
2.000897e+03
2.017183e+03
2.032977e+03
2.048261e+03
2.063013e+03
2.077217e+03
2.090855e+03
2.103913e+03
2.116375e+03
2.128229e+03
2.139463e+03
2.150065e+03
2.160026e+03
2.169336e+03
2.177986e+03
2.185971e+03
2.193282e+03
2.199914e+03
2.205863e+03
2.211122e+03
2.215689e+03
2.219560e+03
2.222733e+03
2.225205e+03
2.226974e+03
2.228040e+03
2.228401e+03
2.228058e+03
2.227011e+03
2.225260e+03
2.222807e+03
2.219653e+03
2.215800e+03
2.211252e+03
2.206011e+03
2.200082e+03
2.193468e+03
2.186176e+03
2.178210e+03
2.169578e+03
2.160287e+03
2.150345e+03
2.139762e+03
2.128547e+03
2.116712e+03
2.104268e+03
2.091229e+03
2.077610e+03
2.063425e+03
2.048691e+03
2.033426e+03
2.017649e+03
2.001381e+03
1.984643e+03
1.967458e+03
1.949851e+03
1.931847e+03
1.913472e+03
1.894756e+03
1.875728e+03
1.856418e+03
1.836858e+03
1.817081e+03
1.797121e+03
1.777014e+03
1.756795e+03
1.736502e+03
1.716172e+03
1.695844e+03
1.675557e+03
1.655353e+03
1.635270e+03
1.615352e+03
1.595643e+03
1.576204e+03
1.557095e+03
1.536962e+03
1.515624e+03
1.494701e+03
1.474273e+03
1.454403e+03
1.435138e+03
1.416520e+03
1.398590e+03
1.381388e+03
1.364951e+03
1.349317e+03
1.334520e+03
1.320592e+03
1.307565e+03
1.295469e+03
1.284330e+03
1.274175e+03
1.265025e+03
1.256902e+03
1.249823e+03
1.243807e+03
1.238865e+03
1.235010e+03
1.232250e+03
1.230591e+03
1.230038e+03
1.226814e+03
1.227365e+03
1.229017e+03
1.231768e+03
1.235609e+03
1.240533e+03
1.246528e+03
1.253580e+03
1.261675e+03
1.270792e+03
1.280912e+03
1.292012e+03
1.304066e+03
1.317048e+03
1.330928e+03
1.345677e+03
1.361259e+03
1.377642e+03
1.394789e+03
1.412663e+03
1.431224e+03
1.450433e+03
1.470247e+03
1.490625e+03
1.511526e+03
1.532897e+03
1.553088e+03
1.572229e+03
1.591654e+03
1.611319e+03
1.631191e+03
1.651226e+03
1.671384e+03
1.691624e+03
1.711907e+03
1.732193e+03
1.752445e+03
1.772623e+03
1.792692e+03
1.812615e+03
1.832357e+03
1.851884e+03
1.871163e+03
1.890163e+03
1.908852e+03
1.927202e+03
1.945183e+03
1.962770e+03
1.979936e+03
1.996658e+03
2.012911e+03
2.028676e+03
2.043930e+03
2.058655e+03
2.072833e+03
2.086448e+03
2.099483e+03
2.111925e+03
2.123759e+03
2.134975e+03
2.145561e+03
2.155506e+03
2.164802e+03
2.173441e+03
2.181414e+03
2.188715e+03
2.195338e+03
2.201278e+03
2.206531e+03
2.211092e+03
2.214958e+03
2.218127e+03
2.220595e+03
2.222363e+03
2.223427e+03
2.223788e+03
2.223446e+03
2.222399e+03
2.220651e+03
2.218200e+03
2.215050e+03
2.211203e+03
2.206660e+03
2.201426e+03
2.195504e+03
2.188900e+03
2.181617e+03
2.173663e+03
2.165043e+03
2.155766e+03
2.145839e+03
2.135272e+03
2.124075e+03
2.112259e+03
2.099836e+03
2.086820e+03
2.073224e+03
2.059064e+03
2.044357e+03
2.029121e+03
2.013375e+03
1.997139e+03
1.980435e+03
1.963286e+03
1.945716e+03
1.927751e+03
1.909418e+03
1.890745e+03
1.871760e+03
1.852496e+03
1.832983e+03
1.813255e+03
1.793346e+03
1.773290e+03
1.753124e+03
1.732885e+03
1.712609e+03
1.692337e+03
1.672107e+03
1.651958e+03
1.631932e+03
1.612069e+03
1.592411e+03
1.572992e+03
1.553858e+03
1.533673e+03
1.512308e+03
1.491411e+03
1.471039e+03
1.451229e+03
1.432024e+03
1.413466e+03
1.395595e+03
1.378451e+03
1.362070e+03
1.346489e+03
1.331743e+03
1.317864e+03
1.304883e+03
1.292829e+03
1.281730e+03
1.271611e+03
1.262494e+03
1.254400e+03
1.247347e+03
1.241352e+03
1.236429e+03
1.232587e+03
1.229837e+03
1.228185e+03
1.227633e+03
1.224059e+03
1.224608e+03
1.226254e+03
1.228992e+03
1.232817e+03
1.237720e+03
1.243690e+03
1.250714e+03
1.258774e+03
1.267854e+03
1.277932e+03
1.288986e+03
1.300991e+03
1.313920e+03
1.327745e+03
1.342433e+03
1.357954e+03
1.374273e+03
1.391354e+03
1.409159e+03
1.427651e+03
1.446789e+03
1.466533e+03
1.486845e+03
1.507698e+03
1.529132e+03
1.549381e+03
1.568568e+03
1.587939e+03
1.607548e+03
1.627357e+03
1.647328e+03
1.667421e+03
1.687596e+03
1.707815e+03
1.728038e+03
1.748227e+03
1.768344e+03
1.788353e+03
1.808218e+03
1.827903e+03
1.847376e+03
1.866602e+03
1.885550e+03
1.904190e+03
1.922492e+03
1.940428e+03
1.957971e+03
1.975096e+03
1.991778e+03
2.007994e+03
2.023723e+03
2.038943e+03
2.053637e+03
2.067785e+03
2.081372e+03
2.094381e+03
2.106798e+03
2.118611e+03
2.129806e+03
2.140373e+03
2.150300e+03
2.159580e+03
2.168204e+03
2.176164e+03
2.183453e+03
2.190066e+03
2.195997e+03
2.201241e+03
2.205795e+03
2.209656e+03
2.212819e+03
2.215284e+03
2.217049e+03
2.218112e+03
2.218472e+03
2.218130e+03
2.217085e+03
2.215339e+03
2.212892e+03
2.209747e+03
2.205905e+03
2.201369e+03
2.196143e+03
2.190231e+03
2.183636e+03
2.176366e+03
2.168425e+03
2.159820e+03
2.150558e+03
2.140649e+03
2.130101e+03
2.118925e+03
2.107131e+03
2.094732e+03
2.081741e+03
2.068173e+03
2.054043e+03
2.039368e+03
2.024165e+03
2.008454e+03
1.992255e+03
1.975591e+03
1.958483e+03
1.940957e+03
1.923037e+03
1.904752e+03
1.886127e+03
1.867194e+03
1.847983e+03
1.828525e+03
1.808854e+03
1.789002e+03
1.769006e+03
1.748901e+03
1.728724e+03
1.708512e+03
1.688304e+03
1.668139e+03
1.648055e+03
1.628093e+03
1.608292e+03
1.588691e+03
1.569326e+03
1.550145e+03
1.529902e+03
1.508474e+03
1.487626e+03
1.467319e+03
1.447579e+03
1.428445e+03
1.409956e+03
1.392154e+03
1.375076e+03
1.358759e+03
1.343240e+03
1.328553e+03
1.314729e+03
1.301801e+03
1.289797e+03
1.278744e+03
1.268666e+03
1.259587e+03
1.251527e+03
1.244504e+03
1.238534e+03
1.233631e+03
1.229806e+03
1.227067e+03
1.225422e+03
1.224873e+03
1.220955e+03
1.221501e+03
1.223139e+03
1.225864e+03
1.229671e+03
1.234551e+03
1.240492e+03
1.247482e+03
1.255504e+03
1.264541e+03
1.274572e+03
1.285574e+03
1.297523e+03
1.310393e+03
1.324154e+03
1.338776e+03
1.354227e+03
1.370473e+03
1.387478e+03
1.405206e+03
1.423618e+03
1.442675e+03
1.462337e+03
1.482565e+03
1.503323e+03
1.524597e+03
1.545500e+03
1.564452e+03
1.583754e+03
1.603296e+03
1.623031e+03
1.642928e+03
1.662947e+03
1.683049e+03
1.703194e+03
1.723345e+03
1.743464e+03
1.763511e+03
1.783453e+03
1.803251e+03
1.822873e+03
1.842282e+03
1.861448e+03
1.880338e+03
1.898922e+03
1.917170e+03
1.935054e+03
1.952547e+03
1.969625e+03
1.986262e+03
2.002435e+03
2.018123e+03
2.033305e+03
2.047963e+03
2.062077e+03
2.075632e+03
2.088611e+03
2.101001e+03
2.112788e+03
2.123959e+03
2.134504e+03
2.144411e+03
2.153673e+03
2.162280e+03
2.170224e+03
2.177500e+03
2.184101e+03
2.190021e+03
2.195256e+03
2.199802e+03
2.203655e+03
2.206814e+03
2.209275e+03
2.211036e+03
2.212097e+03
2.212457e+03
2.212115e+03
2.211072e+03
2.209329e+03
2.206886e+03
2.203746e+03
2.199911e+03
2.195383e+03
2.190166e+03
2.184264e+03
2.177682e+03
2.170425e+03
2.162499e+03
2.153910e+03
2.144667e+03
2.134778e+03
2.124251e+03
2.113099e+03
2.101331e+03
2.088959e+03
2.075998e+03
2.062462e+03
2.048365e+03
2.033726e+03
2.018562e+03
2.002891e+03
1.986735e+03
1.970116e+03
1.953055e+03
1.935578e+03
1.917710e+03
1.899479e+03
1.880911e+03
1.862036e+03
1.842885e+03
1.823489e+03
1.803882e+03
1.784097e+03
1.764168e+03
1.744132e+03
1.724026e+03
1.703886e+03
1.683750e+03
1.663658e+03
1.643649e+03
1.623761e+03
1.604033e+03
1.584499e+03
1.565204e+03
1.546258e+03
1.525361e+03
1.504093e+03
1.483340e+03
1.463116e+03
1.443458e+03
1.424405e+03
1.405997e+03
1.388272e+03
1.371269e+03
1.355025e+03
1.339576e+03
1.324955e+03
1.311196e+03
1.298327e+03
1.286379e+03
1.275377e+03
1.265347e+03
1.256310e+03
1.248288e+03
1.241299e+03
1.235357e+03
1.230478e+03
1.226671e+03
1.223946e+03
1.222308e+03
1.221762e+03
1.217507e+03
1.218050e+03
1.219679e+03
1.222390e+03
1.226176e+03
1.231030e+03
1.236940e+03
1.243892e+03
1.251872e+03
1.260861e+03
1.270839e+03
1.281783e+03
1.293670e+03
1.306473e+03
1.320164e+03
1.334711e+03
1.350084e+03
1.366249e+03
1.383169e+03
1.400810e+03
1.419132e+03