<?xml version="1.0"?>
<VTKFile type="UnstructuredGrid" version="0.1">
<UnstructuredGrid>
<FieldData>
<DataArray Name="TIME" type="Float64" format="ascii" NumberOfTuples="1">
0.000000e+00
</DataArray>
</FieldData>
<FieldData>
<DataArray Name="CYCLE" type="Int32" format="ascii" NumberOfTuples="1">
0
</DataArray>
</FieldData>
<Piece NumberOfPoints="22801" NumberOfCells="22500">
<Points>
<DataArray NumberOfComponents="3" type="Float64" format="ascii">
0.000000e+00 0.000000e+00 0.000000e+00
4.000000e+00 0.000000e+00 0.000000e+00
8.000000e+00 0.000000e+00 0.000000e+00
1.200000e+01 0.000000e+00 0.000000e+00
1.600000e+01 0.000000e+00 0.000000e+00
2.000000e+01 0.000000e+00 0.000000e+00
2.400000e+01 0.000000e+00 0.000000e+00
2.800000e+01 0.000000e+00 0.000000e+00
3.200000e+01 0.000000e+00 0.000000e+00
3.600000e+01 0.000000e+00 0.000000e+00
4.000000e+01 0.000000e+00 0.000000e+00
4.400000e+01 0.000000e+00 0.000000e+00
4.800000e+01 0.000000e+00 0.000000e+00
5.200000e+01 0.000000e+00 0.000000e+00
5.600000e+01 0.000000e+00 0.000000e+00
6.000000e+01 0.000000e+00 0.000000e+00
6.400000e+01 0.000000e+00 0.000000e+00
6.800000e+01 0.000000e+00 0.000000e+00
7.200000e+01 0.000000e+00 0.000000e+00
7.600000e+01 0.000000e+00 0.000000e+00
8.000000e+01 0.000000e+00 0.000000e+00
8.400000e+01 0.000000e+00 0.000000e+00
8.800000e+01 0.000000e+00 0.000000e+00
9.200000e+01 0.000000e+00 0.000000e+00
9.600000e+01 0.000000e+00 0.000000e+00
1.000000e+02 0.000000e+00 0.000000e+00
1.040000e+02 0.000000e+00 0.000000e+00
1.080000e+02 0.000000e+00 0.000000e+00
1.120000e+02 0.000000e+00 0.000000e+00
1.160000e+02 0.000000e+00 0.000000e+00
1.200000e+02 0.000000e+00 0.000000e+00
1.240000e+02 0.000000e+00 0.000000e+00
1.280000e+02 0.000000e+00 0.000000e+00
1.320000e+02 0.000000e+00 0.000000e+00
1.360000e+02 0.000000e+00 0.000000e+00
1.400000e+02 0.000000e+00 0.000000e+00
1.440000e+02 0.000000e+00 0.000000e+00
1.480000e+02 0.000000e+00 0.000000e+00
1.520000e+02 0.000000e+00 0.000000e+00
1.560000e+02 0.000000e+00 0.000000e+00
1.600000e+02 0.000000e+00 0.000000e+00
1.640000e+02 0.000000e+00 0.000000e+00
1.680000e+02 0.000000e+00 0.000000e+00
1.720000e+02 0.000000e+00 0.000000e+00
1.760000e+02 0.000000e+00 0.000000e+00
1.800000e+02 0.000000e+00 0.000000e+00
1.840000e+02 0.000000e+00 0.000000e+00
1.880000e+02 0.000000e+00 0.000000e+00
1.920000e+02 0.000000e+00 0.000000e+00
1.960000e+02 0.000000e+00 0.000000e+00
2.000000e+02 0.000000e+00 0.000000e+00
2.040000e+02 0.000000e+00 0.000000e+00
2.080000e+02 0.000000e+00 0.000000e+00
2.120000e+02 0.000000e+00 0.000000e+00
2.160000e+02 0.000000e+00 0.000000e+00
2.200000e+02 0.000000e+00 0.000000e+00
2.240000e+02 0.000000e+00 0.000000e+00
2.280000e+02 0.000000e+00 0.000000e+00
2.320000e+02 0.000000e+00 0.000000e+00
2.360000e+02 0.000000e+00 0.000000e+00
2.400000e+02 0.000000e+00 0.000000e+00
2.440000e+02 0.000000e+00 0.000000e+00
2.480000e+02 0.000000e+00 0.000000e+00
2.520000e+02 0.000000e+00 0.000000e+00
2.560000e+02 0.000000e+00 0.000000e+00
2.600000e+02 0.000000e+00 0.000000e+00
2.640000e+02 0.000000e+00 0.000000e+00
2.680000e+02 0.000000e+00 0.000000e+00
2.720000e+02 0.000000e+00 0.000000e+00
2.760000e+02 0.000000e+00 0.000000e+00
2.800000e+02 0.000000e+00 0.000000e+00
2.840000e+02 0.000000e+00 0.000000e+00
2.880000e+02 0.000000e+00 0.000000e+00
2.920000e+02 0.000000e+00 0.000000e+00
2.960000e+02 0.000000e+00 0.000000e+00
3.000000e+02 0.000000e+00 0.000000e+00
3.040000e+02 0.000000e+00 0.000000e+00
3.080000e+02 0.000000e+00 0.000000e+00
3.120000e+02 0.000000e+00 0.000000e+00
3.160000e+02 0.000000e+00 0.000000e+00
3.200000e+02 0.000000e+00 0.000000e+00
3.240000e+02 0.000000e+00 0.000000e+00
3.280000e+02 0.000000e+00 0.000000e+00
3.320000e+02 0.000000e+00 0.000000e+00
3.360000e+02 0.000000e+00 0.000000e+00
3.400000e+02 0.000000e+00 0.000000e+00
3.440000e+02 0.000000e+00 0.000000e+00
3.480000e+02 0.000000e+00 0.000000e+00
3.520000e+02 0.000000e+00 0.000000e+00
3.560000e+02 0.000000e+00 0.000000e+00
3.600000e+02 0.000000e+00 0.000000e+00
3.640000e+02 0.000000e+00 0.000000e+00
3.680000e+02 0.000000e+00 0.000000e+00
3.720000e+02 0.000000e+00 0.000000e+00
3.760000e+02 0.000000e+00 0.000000e+00
3.800000e+02 0.000000e+00 0.000000e+00
3.840000e+02 0.000000e+00 0.000000e+00
3.880000e+02 0.000000e+00 0.000000e+00
3.920000e+02 0.000000e+00 0.000000e+00
3.960000e+02 0.000000e+00 0.000000e+00
4.000000e+02 0.000000e+00 0.000000e+00
4.040000e+02 0.000000e+00 0.000000e+00
4.080000e+02 0.000000e+00 0.000000e+00
4.120000e+02 0.000000e+00 0.000000e+00
4.160000e+02 0.000000e+00 0.000000e+00
4.200000e+02 0.000000e+00 0.000000e+00
4.240000e+02 0.000000e+00 0.000000e+00
4.280000e+02 0.000000e+00 0.000000e+00
4.320000e+02 0.000000e+00 0.000000e+00
4.360000e+02 0.000000e+00 0.000000e+00
4.400000e+02 0.000000e+00 0.000000e+00
4.440000e+02 0.000000e+00 0.000000e+00
4.480000e+02 0.000000e+00 0.000000e+00
4.520000e+02 0.000000e+00 0.000000e+00
4.560000e+02 0.000000e+00 0.000000e+00
4.600000e+02 0.000000e+00 0.000000e+00
4.640000e+02 0.000000e+00 0.000000e+00
4.680000e+02 0.000000e+00 0.000000e+00
4.720000e+02 0.000000e+00 0.000000e+00
4.760000e+02 0.000000e+00 0.000000e+00
4.800000e+02 0.000000e+00 0.000000e+00
4.840000e+02 0.000000e+00 0.000000e+00
4.880000e+02 0.000000e+00 0.000000e+00
4.920000e+02 0.000000e+00 0.000000e+00
4.960000e+02 0.000000e+00 0.000000e+00
5.000000e+02 0.000000e+00 0.000000e+00
5.040000e+02 0.000000e+00 0.000000e+00
5.080000e+02 0.000000e+00 0.000000e+00
5.120000e+02 0.000000e+00 0.000000e+00
5.160000e+02 0.000000e+00 0.000000e+00
5.200000e+02 0.000000e+00 0.000000e+00
5.240000e+02 0.000000e+00 0.000000e+00
5.280000e+02 0.000000e+00 0.000000e+00
5.320000e+02 0.000000e+00 0.000000e+00
5.360000e+02 0.000000e+00 0.000000e+00
5.400000e+02 0.000000e+00 0.000000e+00
5.440000e+02 0.000000e+00 0.000000e+00
5.480000e+02 0.000000e+00 0.000000e+00
5.520000e+02 0.000000e+00 0.000000e+00
5.560000e+02 0.000000e+00 0.000000e+00
5.600000e+02 0.000000e+00 0.000000e+00
5.640000e+02 0.000000e+00 0.000000e+00
5.680000e+02 0.000000e+00 0.000000e+00
5.720000e+02 0.000000e+00 0.000000e+00
5.760000e+02 0.000000e+00 0.000000e+00
5.800000e+02 0.000000e+00 0.000000e+00
5.840000e+02 0.000000e+00 0.000000e+00
5.880000e+02 0.000000e+00 0.000000e+00
5.920000e+02 0.000000e+00 0.000000e+00
5.960000e+02 0.000000e+00 0.000000e+00
6.000000e+02 0.000000e+00 0.000000e+00
0.000000e+00 4.000000e+00 0.000000e+00
4.000000e+00 4.000000e+00 0.000000e+00
8.000000e+00 4.000000e+00 0.000000e+00
1.200000e+01 4.000000e+00 0.000000e+00
1.600000e+01 4.000000e+00 0.000000e+00
2.000000e+01 4.000000e+00 0.000000e+00
2.400000e+01 4.000000e+00 0.000000e+00
2.800000e+01 4.000000e+00 0.000000e+00
3.200000e+01 4.000000e+00 0.000000e+00
3.600000e+01 4.000000e+00 0.000000e+00
4.000000e+01 4.000000e+00 0.000000e+00
4.400000e+01 4.000000e+00 0.000000e+00
4.800000e+01 4.000000e+00 0.000000e+00
5.200000e+01 4.000000e+00 0.000000e+00
5.600000e+01 4.000000e+00 0.000000e+00
6.000000e+01 4.000000e+00 0.000000e+00
6.400000e+01 4.000000e+00 0.000000e+00
6.800000e+01 4.000000e+00 0.000000e+00
7.200000e+01 4.000000e+00 0.000000e+00
7.600000e+01 4.000000e+00 0.000000e+00
8.000000e+01 4.000000e+00 0.000000e+00
8.400000e+01 4.000000e+00 0.000000e+00
8.800000e+01 4.000000e+00 0.000000e+00
9.200000e+01 4.000000e+00 0.000000e+00
9.600000e+01 4.000000e+00 0.000000e+00
1.000000e+02 4.000000e+00 0.000000e+00
1.040000e+02 4.000000e+00 0.000000e+00
1.080000e+02 4.000000e+00 0.000000e+00
1.120000e+02 4.000000e+00 0.000000e+00
1.160000e+02 4.000000e+00 0.000000e+00
1.200000e+02 4.000000e+00 0.000000e+00
1.240000e+02 4.000000e+00 0.000000e+00
1.280000e+02 4.000000e+00 0.000000e+00
1.320000e+02 4.000000e+00 0.000000e+00
1.360000e+02 4.000000e+00 0.000000e+00
1.400000e+02 4.000000e+00 0.000000e+00
1.440000e+02 4.000000e+00 0.000000e+00
1.480000e+02 4.000000e+00 0.000000e+00
1.520000e+02 4.000000e+00 0.000000e+00
1.560000e+02 4.000000e+00 0.000000e+00
1.600000e+02 4.000000e+00 0.000000e+00
1.640000e+02 4.000000e+00 0.000000e+00
1.680000e+02 4.000000e+00 0.000000e+00
1.720000e+02 4.000000e+00 0.000000e+00
1.760000e+02 4.000000e+00 0.000000e+00
1.800000e+02 4.000000e+00 0.000000e+00
1.840000e+02 4.000000e+00 0.000000e+00
1.880000e+02 4.000000e+00 0.000000e+00
1.920000e+02 4.000000e+00 0.000000e+00
1.960000e+02 4.000000e+00 0.000000e+00
2.000000e+02 4.000000e+00 0.000000e+00
2.040000e+02 4.000000e+00 0.000000e+00
2.080000e+02 4.000000e+00 0.000000e+00
2.120000e+02 4.000000e+00 0.000000e+00
2.160000e+02 4.000000e+00 0.000000e+00
2.200000e+02 4.000000e+00 0.000000e+00
2.240000e+02 4.000000e+00 0.000000e+00
2.280000e+02 4.000000e+00 0.000000e+00
2.320000e+02 4.000000e+00 0.000000e+00
2.360000e+02 4.000000e+00 0.000000e+00
2.400000e+02 4.000000e+00 0.000000e+00
2.440000e+02 4.000000e+00 0.000000e+00
2.480000e+02 4.000000e+00 0.000000e+00
2.520000e+02 4.000000e+00 0.000000e+00
2.560000e+02 4.000000e+00 0.000000e+00
2.600000e+02 4.000000e+00 0.000000e+00
2.640000e+02 4.000000e+00 0.000000e+00
2.680000e+02 4.000000e+00 0.000000e+00
2.720000e+02 4.000000e+00 0.000000e+00
2.760000e+02 4.000000e+00 0.000000e+00
2.800000e+02 4.000000e+00 0.000000e+00
2.840000e+02 4.000000e+00 0.000000e+00
2.880000e+02 4.000000e+00 0.000000e+00
2.920000e+02 4.000000e+00 0.000000e+00
2.960000e+02 4.000000e+00 0.000000e+00
3.000000e+02 4.000000e+00 0.000000e+00
3.040000e+02 4.000000e+00 0.000000e+00
3.080000e+02 4.000000e+00 0.000000e+00
3.120000e+02 4.000000e+00 0.000000e+00
3.160000e+02 4.000000e+00 0.000000e+00
3.200000e+02 4.000000e+00 0.000000e+00
3.240000e+02 4.000000e+00 0.000000e+00
3.280000e+02 4.000000e+00 0.000000e+00
3.320000e+02 4.000000e+00 0.000000e+00
3.360000e+02 4.000000e+00 0.000000e+00
3.400000e+02 4.000000e+00 0.000000e+00
3.440000e+02 4.000000e+00 0.000000e+00
3.480000e+02 4.000000e+00 0.000000e+00
3.520000e+02 4.000000e+00 0.000000e+00
3.560000e+02 4.000000e+00 0.000000e+00
3.600000e+02 4.000000e+00 0.000000e+00
3.640000e+02 4.000000e+00 0.000000e+00
3.680000e+02 4.000000e+00 0.000000e+00
[...]
<PointData>
<DataArray Name="T" type="Float64" NumberOfComponents="1" format="ascii">
1.234398e+03
1.234960e+03
1.236645e+03
1.239450e+03
1.243367e+03
1.248388e+03
1.254501e+03
1.261692e+03
1.269944e+03
1.279239e+03
1.289555e+03
1.300869e+03
1.313154e+03
1.326384e+03
1.340527e+03
1.355552e+03
1.371425e+03
1.388110e+03
1.405571e+03
1.423767e+03
1.442659e+03
1.462205e+03
1.482361e+03
1.503081e+03
1.524315e+03
1.546008e+03
1.565115e+03
1.584568e+03
1.604315e+03
1.624309e+03
1.644504e+03
1.664859e+03
1.685333e+03
1.705885e+03
1.726475e+03
1.747063e+03
1.767610e+03
1.788078e+03
1.808430e+03
1.828628e+03
1.848638e+03
1.868424e+03
1.887954e+03
1.907195e+03
1.926117e+03
1.944689e+03
1.962884e+03
1.980674e+03
1.998034e+03
2.014940e+03
2.031368e+03
2.047296e+03
2.062706e+03
2.077576e+03
2.091890e+03
2.105632e+03
2.118786e+03
2.131337e+03
2.143273e+03
2.154583e+03
2.165255e+03
2.175279e+03
2.184646e+03
2.193349e+03
2.201381e+03
2.208734e+03
2.215404e+03
2.221384e+03
2.226672e+03
2.231263e+03
2.235155e+03
2.238344e+03
2.240828e+03
2.242607e+03
2.243678e+03
2.244042e+03
2.243697e+03
2.242644e+03
2.240885e+03
2.238419e+03
2.235249e+03
2.231377e+03
2.226805e+03
2.221536e+03
2.215574e+03
2.208924e+03
2.201590e+03
2.193577e+03
2.184894e+03
2.175545e+03
2.165541e+03
2.154888e+03
2.143598e+03
2.131681e+03
2.119149e+03
2.106014e+03
2.092292e+03
2.077996e+03
2.063145e+03
2.047754e+03
2.031844e+03
2.015434e+03
1.998547e+03
1.981205e+03
1.963432e+03
1.945254e+03
1.926698e+03
1.907793e+03
1.888568e+03
1.869053e+03
1.849282e+03
1.829287e+03
1.809102e+03
1.788764e+03
1.768308e+03
1.747773e+03
1.727197e+03
1.706618e+03
1.686076e+03
1.665612e+03
1.645266e+03
1.625079e+03
1.605093e+03
1.585353e+03
1.565907e+03
1.546806e+03
1.525118e+03
1.503890e+03
1.483175e+03
1.463023e+03
1.443481e+03
1.424593e+03
1.406399e+03
1.388941e+03
1.372258e+03
1.356387e+03
1.341363e+03
1.327221e+03
1.313993e+03
1.301708e+03
1.290395e+03
1.280080e+03
1.270785e+03
1.262533e+03
1.255342e+03
1.249229e+03
1.244209e+03
1.240292e+03
1.237487e+03
1.235802e+03
1.235240e+03
1.234211e+03
1.234773e+03
1.236457e+03
1.239261e+03
1.243177e+03
1.248197e+03
1.254308e+03
1.261497e+03
1.269747e+03
1.279039e+03
1.289352e+03
1.300663e+03
1.312945e+03
1.326171e+03
1.340310e+03
1.355332e+03
1.371201e+03
1.387882e+03
1.405338e+03
1.423529e+03
1.442417e+03
1.461958e+03
1.482110e+03
1.502827e+03
1.524061e+03
1.545756e+03
1.564865e+03
1.584318e+03
1.604064e+03
1.624054e+03
1.644245e+03
1.664595e+03
1.685065e+03
1.705612e+03
1.726198e+03
1.746781e+03
1.767324e+03
1.787788e+03
1.808136e+03
1.828331e+03
1.848336e+03
1.868119e+03
1.887646e+03
1.906884e+03
1.925802e+03
1.944371e+03
1.962563e+03
1.980351e+03
1.997708e+03
2.014611e+03
2.031036e+03
2.046963e+03
2.062370e+03
2.077238e+03
2.091551e+03
2.105290e+03
2.118442e+03
2.130992e+03
2.142927e+03
2.154235e+03
2.164906e+03
2.174929e+03
2.184295e+03
2.192998e+03
2.201028e+03
2.208381e+03
2.215049e+03
2.221030e+03
2.226317e+03
2.230908e+03
2.234799e+03
2.237988e+03
2.240472e+03
2.242250e+03
2.243321e+03
2.243685e+03
2.243340e+03
2.242288e+03
2.240528e+03
2.238063e+03
2.234893e+03
2.231021e+03
2.226449e+03
2.221181e+03
2.215220e+03
2.208570e+03
2.201237e+03
2.193225e+03
2.184542e+03
2.175195e+03
2.165191e+03
2.154540e+03
2.143251e+03
2.131336e+03
2.118805e+03
2.105672e+03
2.091952e+03
2.077658e+03
2.062808e+03
2.047420e+03
2.031512e+03
2.015105e+03
1.998220e+03
1.980880e+03
1.963111e+03
1.944936e+03
1.926383e+03
1.907481e+03
1.888259e+03
1.868748e+03
1.848980e+03
1.828989e+03
1.808808e+03
1.788474e+03
1.768023e+03
1.747492e+03
1.726919e+03
1.706345e+03
1.685808e+03
1.665348e+03
1.645007e+03
1.624824e+03
1.604842e+03
1.585103e+03
1.565656e+03
1.546552e+03
1.524864e+03
1.503636e+03
1.482923e+03
1.462776e+03
1.443238e+03
1.424354e+03
1.406165e+03
1.388712e+03
1.372033e+03
1.356166e+03
1.341146e+03
1.327008e+03
1.313783e+03
1.301502e+03
1.290192e+03
1.279879e+03
1.270587e+03
1.262337e+03
1.255149e+03
1.249038e+03
1.244018e+03
1.240102e+03
1.237299e+03
1.235614e+03
1.235052e+03
1.233649e+03
1.234210e+03
1.235894e+03
1.238695e+03
1.242608e+03
1.247623e+03
1.253729e+03
1.260912e+03
1.269155e+03
1.278440e+03
1.288745e+03
1.300046e+03
1.312318e+03
1.325533e+03
1.339662e+03
1.354671e+03
1.370527e+03
1.387195e+03
1.404638e+03
1.422816e+03
1.441690e+03
1.461217e+03
1.481356e+03
1.502064e+03
1.523296e+03
1.544997e+03
1.564115e+03
1.583572e+03
1.603313e+03
1.623291e+03
1.643468e+03
1.663805e+03
1.684260e+03
1.704794e+03
1.725367e+03
1.745938e+03
1.766468e+03
1.786920e+03
1.807256e+03
1.827439e+03
1.847433e+03
1.867205e+03
1.886721e+03
1.905949e+03
1.924858e+03
1.943417e+03
1.961600e+03
1.979379e+03
1.996729e+03
2.013624e+03
2.030042e+03
2.045961e+03
2.061362e+03
2.076224e+03
2.090531e+03
2.104265e+03
2.117412e+03
2.129958e+03
2.141888e+03
2.153193e+03
2.163859e+03
2.173879e+03
2.183243e+03
2.191942e+03
2.199970e+03
2.207320e+03
2.213987e+03
2.219966e+03
2.225252e+03
2.229841e+03
2.233731e+03
2.236919e+03
2.239403e+03
2.241180e+03
2.242251e+03
2.242615e+03
2.242270e+03
2.241218e+03
2.239459e+03
2.236994e+03
2.233825e+03
2.229954e+03
2.225384e+03
2.220117e+03
2.214157e+03
2.207510e+03
2.200178e+03
2.192170e+03
2.183490e+03
2.174145e+03
2.164145e+03
2.153497e+03
2.142212e+03
2.130301e+03
2.117775e+03
2.104647e+03
2.090931e+03
2.076644e+03
2.061800e+03
2.046418e+03
2.030517e+03
2.014117e+03
1.997240e+03
1.979909e+03
1.962147e+03
1.943981e+03
1.925438e+03
1.906546e+03
1.887334e+03
1.867833e+03
1.848076e+03
1.828096e+03
1.807927e+03
1.787605e+03
1.767165e+03
1.746647e+03
1.726087e+03
1.705526e+03
1.685002e+03
1.664556e+03
1.644229e+03
1.624060e+03
1.604089e+03
1.584356e+03
1.564905e+03
1.545793e+03
1.524097e+03
1.502871e+03
1.482168e+03
1.462033e+03
1.442510e+03
1.423640e+03
1.405465e+03
1.388025e+03
1.371359e+03
1.355504e+03
1.340496e+03
1.326370e+03
1.313155e+03
1.300884e+03
1.289583e+03
1.279279e+03
1.269995e+03
1.261751e+03
1.254569e+03
1.248463e+03
1.243448e+03
1.239535e+03
1.236734e+03
1.235050e+03
1.234489e+03
1.232714e+03
1.233274e+03
1.234955e+03
1.237753e+03
1.241660e+03
1.246668e+03
1.252766e+03
1.259939e+03
1.268171e+03
1.277443e+03
1.287733e+03
1.299019e+03
1.311275e+03
1.324472e+03
1.338582e+03
1.353571e+03
1.369407e+03
1.386053e+03
1.403474e+03
1.421629e+03
1.440479e+03
1.459982e+03
1.480097e+03
1.500783e+03
1.522008e+03
1.543730e+03
1.562874e+03
1.582343e+03
1.602069e+03
1.622022e+03
1.642175e+03
1.662488e+03
1.682921e+03
1.703432e+03
1.723983e+03
1.744533e+03
1.765042e+03
1.785474e+03
1.805790e+03
1.825953e+03
1.845929e+03
1.865683e+03
1.885182e+03
1.904392e+03
1.923285e+03
1.941829e+03
1.959997e+03
1.977762e+03
1.995097e+03
2.011980e+03
2.028385e+03
2.044293e+03
2.059683e+03
2.074535e+03
2.088833e+03
2.102558e+03
2.115697e+03
2.128234e+03
2.140158e+03
2.151455e+03
2.162116e+03
2.172130e+03
2.181489e+03
2.190184e+03
2.198208e+03
2.205554e+03
2.212218e+03
2.218194e+03
2.223477e+03
2.228064e+03
2.231952e+03
2.235139e+03
2.237621e+03
2.239398e+03
2.240469e+03
2.240832e+03
2.240487e+03
2.239436e+03
2.237677e+03
2.235214e+03
2.232046e+03
2.228177e+03
2.223609e+03
2.218344e+03
2.212388e+03
2.205743e+03
2.198416e+03
2.190411e+03
2.181735e+03
2.172396e+03
2.162401e+03
2.151759e+03
2.140481e+03
2.128576e+03
2.116058e+03
2.102938e+03
2.089232e+03
2.074954e+03
2.060120e+03
2.044749e+03
2.028860e+03
2.012472e+03
1.995608e+03
1.978290e+03
1.960542e+03
1.942391e+03
1.923864e+03
1.904988e+03
1.885793e+03
1.866310e+03
1.846571e+03
1.826609e+03
1.806459e+03
1.786157e+03
1.765738e+03
1.745240e+03
1.724702e+03
1.704162e+03
1.683661e+03
1.663238e+03
1.642933e+03
1.622789e+03
1.602844e+03
1.583124e+03
1.563662e+03
1.544524e+03
1.522807e+03
1.501588e+03
1.480907e+03
1.460797e+03
1.441297e+03
1.422450e+03
1.404298e+03
1.386880e+03
1.370236e+03
1.354402e+03
1.339414e+03
1.325306e+03
1.312110e+03
1.299855e+03
1.288570e+03
1.278279e+03
1.269008e+03
1.260776e+03
1.253604e+03
1.247506e+03
1.242498e+03
1.238591e+03
1.235793e+03
1.234112e+03
1.233552e+03
1.231407e+03
1.231967e+03
1.233645e+03
1.236437e+03
1.240336e+03
1.245335e+03
1.251420e+03
1.258579e+03
1.266795e+03
1.276049e+03
1.286320e+03
1.297584e+03
1.309817e+03
1.322989e+03
1.337072e+03
1.352034e+03
1.367841e+03
1.384457e+03
1.401846e+03
1.419969e+03
1.438786e+03
1.458256e+03
1.478336e+03
1.498983e+03
1.520155e+03
1.541921e+03
1.561190e+03
1.580666e+03
1.600334e+03
1.620248e+03
1.640366e+03
1.660646e+03
1.681047e+03
1.701528e+03
1.722048e+03
1.742568e+03
1.763049e+03
1.783452e+03
1.803740e+03
1.823877e+03
1.843826e+03
1.863555e+03
1.883028e+03
1.902215e+03
1.921085e+03
1.939608e+03
1.957755e+03
1.975499e+03
1.992816e+03
2.009680e+03
2.026069e+03
2.041961e+03
2.057335e+03
2.072173e+03
2.086457e+03
2.100170e+03
2.113297e+03
2.125823e+03
2.137737e+03
2.149025e+03
2.159677e+03
2.169684e+03
2.179035e+03
2.187723e+03
2.195742e+03
2.203083e+03
2.209742e+03
2.215714e+03
2.220993e+03
2.225578e+03
2.229463e+03
2.232647e+03
2.235128e+03
2.236904e+03
2.237974e+03
2.238337e+03
2.237993e+03
2.236942e+03
2.235185e+03
2.232722e+03
2.229557e+03
2.225690e+03
2.221125e+03
2.215864e+03
2.209911e+03
2.203271e+03
2.195949e+03
2.187950e+03
2.179281e+03
2.169948e+03
2.159961e+03
2.149328e+03
2.138059e+03
2.126164e+03
2.113657e+03
2.100549e+03
2.086855e+03
2.072590e+03
2.057771e+03
2.042415e+03
2.026541e+03
2.010171e+03
1.993324e+03
1.976025e+03
1.958298e+03
1.940168e+03
1.921662e+03
1.902809e+03
1.883637e+03
1.864179e+03
1.844465e+03
1.824530e+03
1.804407e+03
1.784132e+03
1.763742e+03
1.743273e+03
1.722765e+03
1.702255e+03
1.681785e+03
1.661393e+03
1.641122e+03
1.621012e+03
1.601106e+03
1.581444e+03
1.561975e+03
1.542712e+03
1.520952e+03
1.499785e+03
1.479143e+03
1.459068e+03
1.439602e+03
1.420788e+03
1.402668e+03
1.385281e+03
1.368667e+03
1.352862e+03
1.337902e+03
1.323820e+03
1.310649e+03
1.298417e+03
1.287153e+03
1.276883e+03
1.267629e+03
1.259414e+03
1.252255e+03
1.246169e+03
1.241171e+03
1.237271e+03
1.234480e+03
1.232802e+03
1.232242e+03
1.229732e+03
1.230291e+03
1.231964e+03
1.234749e+03
1.238639e+03
1.243625e+03
1.249695e+03
1.256836e+03
1.265031e+03
1.274262e+03
1.284508e+03
1.295744e+03
1.307947e+03
1.321088e+03
1.335137e+03
1.350062e+03
1.365832e+03
1.382410e+03
1.399759e+03
1.417840e+03
1.436615e+03
1.456042e+03
1.476076e+03
1.496672e+03
1.517778e+03
1.539241e+03
1.559309e+03
1.578499e+03
1.598103e+03
1.617968e+03
1.638043e+03
1.658282e+03
1.678642e+03
1.699084e+03
1.719565e+03
1.740047e+03
1.760490e+03
1.780857e+03
1.801109e+03
1.821211e+03
1.841127e+03
1.860822e+03
1.880264e+03
1.899421e+03
1.918261e+03
1.936755e+03
1.954875e+03
1.972594e+03
1.989886e+03
2.006727e+03
2.023094e+03
2.038965e+03
2.054320e+03
2.069139e+03
2.083405e+03
2.097102e+03
2.110214e+03
2.122727e+03
2.134627e+03
2.145904e+03
2.156545e+03
2.166541e+03
2.175883e+03
2.184563e+03
2.192574e+03
2.199908e+03
2.206561e+03
2.212528e+03
2.217803e+03
2.222383e+03
2.226265e+03
2.229447e+03
2.231926e+03
2.233700e+03
2.234769e+03
2.235132e+03
2.234788e+03
2.233738e+03
2.231982e+03
2.229522e+03
2.226359e+03
2.222495e+03
2.217934e+03
2.212677e+03
2.206730e+03
2.200096e+03
2.192780e+03
2.184788e+03
2.176127e+03
2.166804e+03
2.156827e+03
2.146205e+03
2.134948e+03
2.123066e+03
2.110573e+03
2.097479e+03
2.083802e+03
2.069554e+03
2.054753e+03
2.039417e+03
2.023564e+03
2.007216e+03
1.990392e+03
1.973118e+03
1.955416e+03
1.937313e+03
1.918835e+03
1.900011e+03
1.880870e+03
1.861444e+03
1.841763e+03
1.821861e+03
1.801773e+03
1.781534e+03
1.761180e+03
1.740749e+03
1.720279e+03
1.699808e+03
1.679377e+03
1.659025e+03
1.638795e+03
1.618729e+03
1.598872e+03
1.579274e+03
1.560091e+03
1.540029e+03
1.518571e+03
1.497471e+03
1.476880e+03
1.456850e+03
1.437427e+03
1.418656e+03
1.400577e+03
1.383230e+03
1.366655e+03
1.350887e+03
1.335963e+03
1.321915e+03
1.308775e+03
1.296574e+03
1.285338e+03
1.275093e+03
1.265862e+03
1.257667e+03
1.250526e+03
1.244456e+03
1.239470e+03
1.235580e+03
1.232795e+03
1.231122e+03
1.230564e+03
1.227693e+03
1.228249e+03
1.229917e+03
1.232693e+03
1.236571e+03
1.241542e+03
1.247593e+03
1.254712e+03
1.262883e+03
1.272086e+03
1.282300e+03
1.293503e+03
1.305669e+03
1.318771e+03
1.332778e+03
1.347660e+03
1.363384e+03
1.379914e+03
1.397214e+03
1.415246e+03
1.433969e+03
1.453343e+03
1.473325e+03
1.493867e+03
1.514906e+03
1.536362e+03
1.556606e+03
1.575820e+03
1.595366e+03
1.615182e+03
1.635207e+03
1.655397e+03
1.675710e+03
1.696103e+03
1.716537e+03
1.736972e+03
1.757370e+03
1.777691e+03
1.797900e+03
1.817959e+03
1.837833e+03
1.857489e+03
1.876892e+03
1.896011e+03
1.914815e+03
1.933275e+03
1.951362e+03
1.969050e+03
1.986312e+03
2.003124e+03
2.019463e+03
2.035309e+03
2.050639e+03
2.065436e+03
2.079681e+03
2.093358e+03
2.106451e+03
2.118947e+03
2.130831e+03
2.142093e+03
2.152720e+03
2.162704e+03
2.172035e+03
2.180705e+03
2.188706e+03
2.196032e+03
2.202678e+03
2.208637e+03
2.213907e+03
2.218482e+03
2.222361e+03
2.225539e+03
2.228015e+03
2.229788e+03
2.230855e+03
2.231218e+03
2.230874e+03
2.229825e+03
2.228071e+03
2.225613e+03
2.222453e+03
2.218594e+03
2.214037e+03
2.208786e+03
2.202845e+03
2.196219e+03
2.188911e+03
2.180928e+03
2.172278e+03
2.162966e+03
2.153001e+03
2.142392e+03
2.131150e+03
2.119284e+03
2.106808e+03
2.093733e+03
2.080075e+03
2.065849e+03
2.051071e+03
2.035758e+03
2.019931e+03
2.003609e+03
1.986815e+03
1.969570e+03
1.951900e+03
1.933830e+03
1.915387e+03
1.896599e+03
1.877495e+03
1.858107e+03
1.838466e+03
1.818606e+03
1.798560e+03
1.778365e+03
1.758056e+03
1.737670e+03
1.717247e+03
1.696823e+03
1.676440e+03
1.656137e+03
1.635956e+03
1.615939e+03
1.596131e+03
1.576592e+03
1.557384e+03
1.537146e+03
1.515695e+03
1.494662e+03
1.474124e+03
1.454147e+03
1.434777e+03
1.416057e+03
1.398028e+03
1.380730e+03
1.364203e+03
1.348481e+03
1.333600e+03
1.319593e+03
1.306493e+03
1.294328e+03
1.283125e+03
1.272911e+03
1.263709e+03
1.255539e+03
1.248420e+03
1.242368e+03
1.237398e+03
1.233520e+03
1.230744e+03
1.229076e+03
1.228519e+03
1.225292e+03
1.225846e+03
1.227508e+03
1.230274e+03
1.234138e+03
1.239090e+03
1.245120e+03
1.252213e+03
1.260354e+03
1.269524e+03
1.279701e+03
1.290864e+03
1.302987e+03
1.316043e+03
1.330001e+03
1.344832e+03
1.360502e+03
1.376976e+03
1.394218e+03
1.412190e+03
1.430852e+03
1.450165e+03
1.470086e+03
1.490573e+03
1.511585e+03
1.533069e+03
1.553365e+03
1.572604e+03
1.592129e+03
1.611893e+03
1.631864e+03
1.651997e+03
1.672253e+03
1.692590e+03
1.712968e+03
1.733348e+03
1.753691e+03
1.773960e+03
1.794117e+03
1.814125e+03
1.833951e+03
1.853559e+03
1.872916e+03
1.891991e+03
1.910752e+03
1.929171e+03
1.947219e+03
1.964869e+03
1.982095e+03
1.998873e+03
2.015181e+03
2.030995e+03
2.046297e+03
2.061067e+03
2.075287e+03
2.088940e+03
2.102011e+03
2.114486e+03
2.126351e+03
2.137595e+03
2.148207e+03
2.158176e+03
2.167493e+03
2.176150e+03
2.184140e+03
2.191457e+03
2.198094e+03
2.204045e+03
2.209308e+03
2.213878e+03
2.217751e+03
2.220926e+03
2.223399e+03
2.225169e+03
2.226236e+03
2.226597e+03
2.226254e+03
2.225206e+03
2.223454e+03
2.220999e+03
2.217844e+03
2.213989e+03
2.209438e+03
2.204193e+03
2.198260e+03
2.191642e+03
2.184344e+03
2.176373e+03
2.167734e+03
2.158436e+03
2.148486e+03
2.137893e+03
2.126668e+03
2.114821e+03
2.102365e+03
2.089313e+03
2.075678e+03
2.061477e+03
2.046726e+03
2.031442e+03
2.015646e+03
1.999356e+03
1.982595e+03
1.965386e+03
1.947753e+03
1.929722e+03
1.911320e+03
1.892574e+03
1.873515e+03
1.854173e+03
1.834580e+03
1.814768e+03
1.794773e+03
1.774629e+03
1.754373e+03
1.734042e+03
1.713673e+03
1.693305e+03
1.672978e+03
1.652732e+03
1.632607e+03
1.612645e+03
1.592888e+03
1.573371e+03
1.554137e+03
1.533847e+03
1.512370e+03
1.491362e+03
1.470880e+03
1.450964e+03
1.431655e+03
1.412995e+03
1.395026e+03
1.377787e+03
1.361315e+03
1.345647e+03
1.330818e+03
1.316860e+03
1.303806e+03
1.291684e+03
1.280521e+03
1.270344e+03
1.261175e+03
1.253034e+03
1.245941e+03
1.239911e+03
1.234959e+03
1.231096e+03
1.228330e+03
1.226668e+03
1.226113e+03
1.222535e+03
1.223087e+03
1.224742e+03
1.227497e+03
1.231344e+03
1.236275e+03
1.242279e+03
1.249343e+03
1.257450e+03
1.266581e+03
1.276717e+03
1.287834e+03
1.299907e+03
1.312909e+03
1.326811e+03
1.341583e+03
1.357190e+03
1.373599e+03
1.390774e+03
1.408677e+03
1.427270e+03
1.446511e+03
1.466362e+03
1.486782e+03
1.507745e+03
1.529292e+03
1.549646e+03
1.568933e+03
1.588403e+03
1.608110e+03
1.628018e+03
1.648087e+03
1.668277e+03
1.688549e+03
1.708863e+03
1.729179e+03
1.749460e+03
1.769667e+03
1.789764e+03
1.809715e+03
1.829483e+03
1.849036e+03
1.868340e+03
1.887364e+03
1.906076e+03
1.924447e+03
1.942450e+03
1.960056e+03
1.977241e+03
1.993980e+03
2.010250e+03
2.026029e+03
2.041298e+03
2.056036e+03
2.070226e+03
2.083852e+03
2.096897e+03
2.109348e+03
2.121191e+03
2.132415e+03
2.143007e+03
2.152959e+03
2.162260e+03
2.170904e+03
2.178881e+03
2.186185e+03
2.192812e+03
2.198754e+03
2.204009e+03
2.208572e+03
2.212440e+03
2.215610e+03
2.218079e+03
2.219847e+03
2.220912e+03
2.221273e+03
2.220930e+03
2.219884e+03
2.218134e+03
2.215683e+03
2.212531e+03
2.208682e+03
2.204137e+03
2.198901e+03
2.192977e+03
2.186369e+03
2.179083e+03
2.171125e+03
2.162500e+03
2.153217e+03
2.143284e+03
2.132710e+03
2.121506e+03
2.109681e+03
2.097249e+03
2.084222e+03
2.070615e+03
2.056443e+03
2.041723e+03
2.026473e+03
2.010711e+03
1.994459e+03
1.977737e+03
1.960570e+03
1.942980e+03
1.924995e+03
1.906639e+03
1.887943e+03
1.868935e+03
1.849646e+03
1.830107e+03
1.810353e+03
1.790416e+03
1.770332e+03
1.750137e+03
1.729868e+03
1.709562e+03
1.689259e+03
1.668997e+03
1.648817e+03
1.628756e+03
1.608857e+03
1.589157e+03
1.569693e+03
1.550413e+03
1.530065e+03
1.508524e+03
1.487566e+03
1.467150e+03
1.447304e+03
1.428066e+03
1.409477e+03
1.391577e+03
1.374404e+03
1.357997e+03
1.342391e+03
1.327622e+03
1.313720e+03
1.300719e+03
1.288647e+03
1.277531e+03
1.267395e+03
1.258264e+03
1.250158e+03
1.243094e+03
1.237090e+03
1.232159e+03
1.228312e+03
1.225558e+03
1.223902e+03
1.223350e+03
1.219428e+03
1.219978e+03
1.221625e+03
1.224366e+03
1.228195e+03
1.233102e+03
1.239078e+03
1.246108e+03
1.254176e+03
1.263264e+03
1.273352e+03
1.284417e+03
1.296434e+03
1.309376e+03
1.323214e+03
1.337918e+03
1.353455e+03
1.369791e+03
1.386890e+03
1.404714e+03
1.423226e+03
1.442386e+03
1.462154e+03
1.482490e+03
1.503358e+03
1.524743e+03
1.545755e+03
1.564805e+03
1.584204e+03
1.603845e+03
1.623679e+03
1.643673e+03
1.663789e+03
1.683987e+03
1.704227e+03
1.724471e+03
1.744681e+03
1.764819e+03
1.784848e+03
1.804732e+03
1.824437e+03
1.843927e+03
1.863171e+03
1.882136e+03
1.900792e+03
1.919109e+03
1.937059e+03
1.954616e+03
1.971754e+03
1.988448e+03
2.004676e+03
2.020415e+03
2.035645e+03
2.050347e+03
2.064504e+03
2.078098e+03
2.091114e+03
2.103538e+03
2.115355e+03
2.126555e+03
2.137126e+03
2.147058e+03
2.156341e+03
2.164968e+03
2.172930e+03
2.180221e+03
2.186836e+03
2.192768e+03
2.198013e+03
2.202569e+03
2.206430e+03
2.209594e+03
2.212059e+03
2.213824e+03
2.214887e+03
2.215248e+03
2.214905e+03
2.213860e+03
2.212114e+03
2.209667e+03
2.206520e+03
2.202677e+03
2.198141e+03
2.192913e+03
2.187000e+03
2.180403e+03
2.173130e+03
2.165187e+03
2.156579e+03
2.147314e+03
2.137401e+03
2.126848e+03
2.115667e+03
2.103868e+03
2.091463e+03
2.078465e+03
2.064889e+03
2.050751e+03
2.036067e+03
2.020854e+03
2.005133e+03
1.988923e+03
1.972246e+03
1.955126e+03
1.937586e+03
1.919651e+03
1.901350e+03
1.882710e+03
1.863760e+03
1.844531e+03
1.825055e+03
1.805365e+03
1.785494e+03
1.765478e+03
1.745352e+03
1.725154e+03
1.704921e+03
1.684691e+03
1.664503e+03
1.644396e+03
1.624411e+03
1.604585e+03
1.584952e+03
1.565559e+03
1.546515e+03
1.525509e+03
1.504130e+03
1.483267e+03
1.462936e+03
1.443172e+03
1.424016e+03
1.405507e+03
1.387685e+03
1.370589e+03
1.354255e+03
1.338720e+03
1.324018e+03
1.310180e+03
1.297239e+03
1.285223e+03
1.274159e+03
1.264072e+03
1.254984e+03
1.246916e+03
1.239886e+03
1.233911e+03
1.229003e+03
1.225174e+03
1.222433e+03
1.220786e+03
1.220237e+03
1.215978e+03
1.216525e+03
1.218163e+03
1.220889e+03
1.224697e+03
1.229578e+03
1.235522e+03
1.242514e+03
1.250539e+03
1.259579e+03
1.269614e+03
1.280621e+03
1.292575e+03
1.305449e+03
1.319216e+03
1.333845e+03
1.349303e+03
1.365557e+03
1.382571e+03
1.400307e+03
1.418729e+03