<?xml version="1.0"?>
<VTKFile type="UnstructuredGrid" version="0.1">
<UnstructuredGrid>
<FieldData>
<DataArray Name="TIME" type="Float64" format="ascii" NumberOfTuples="1">
0.000000e+00
</DataArray>
</FieldData>
<FieldData>
<DataArray Name="CYCLE" type="Int32" format="ascii" NumberOfTuples="1">
0
</DataArray>
</FieldData>
<Piece NumberOfPoints="22801" NumberOfCells="22500">
<Points>
<DataArray NumberOfComponents="3" type="Float64" format="ascii">
0.000000e+00 0.000000e+00 0.000000e+00
4.000000e+00 0.000000e+00 0.000000e+00
8.000000e+00 0.000000e+00 0.000000e+00
1.200000e+01 0.000000e+00 0.000000e+00
1.600000e+01 0.000000e+00 0.000000e+00
2.000000e+01 0.000000e+00 0.000000e+00
2.400000e+01 0.000000e+00 0.000000e+00
2.800000e+01 0.000000e+00 0.000000e+00
3.200000e+01 0.000000e+00 0.000000e+00
3.600000e+01 0.000000e+00 0.000000e+00
4.000000e+01 0.000000e+00 0.000000e+00
4.400000e+01 0.000000e+00 0.000000e+00
4.800000e+01 0.000000e+00 0.000000e+00
5.200000e+01 0.000000e+00 0.000000e+00
5.600000e+01 0.000000e+00 0.000000e+00
6.000000e+01 0.000000e+00 0.000000e+00
6.400000e+01 0.000000e+00 0.000000e+00
6.800000e+01 0.000000e+00 0.000000e+00
7.200000e+01 0.000000e+00 0.000000e+00
7.600000e+01 0.000000e+00 0.000000e+00
8.000000e+01 0.000000e+00 0.000000e+00
8.400000e+01 0.000000e+00 0.000000e+00
8.800000e+01 0.000000e+00 0.000000e+00
9.200000e+01 0.000000e+00 0.000000e+00
9.600000e+01 0.000000e+00 0.000000e+00
1.000000e+02 0.000000e+00 0.000000e+00
1.040000e+02 0.000000e+00 0.000000e+00
1.080000e+02 0.000000e+00 0.000000e+00
1.120000e+02 0.000000e+00 0.000000e+00
1.160000e+02 0.000000e+00 0.000000e+00
1.200000e+02 0.000000e+00 0.000000e+00
1.240000e+02 0.000000e+00 0.000000e+00
1.280000e+02 0.000000e+00 0.000000e+00
1.320000e+02 0.000000e+00 0.000000e+00
1.360000e+02 0.000000e+00 0.000000e+00
1.400000e+02 0.000000e+00 0.000000e+00
1.440000e+02 0.000000e+00 0.000000e+00
1.480000e+02 0.000000e+00 0.000000e+00
1.520000e+02 0.000000e+00 0.000000e+00
1.560000e+02 0.000000e+00 0.000000e+00
1.600000e+02 0.000000e+00 0.000000e+00
1.640000e+02 0.000000e+00 0.000000e+00
1.680000e+02 0.000000e+00 0.000000e+00
1.720000e+02 0.000000e+00 0.000000e+00
1.760000e+02 0.000000e+00 0.000000e+00
1.800000e+02 0.000000e+00 0.000000e+00
1.840000e+02 0.000000e+00 0.000000e+00
1.880000e+02 0.000000e+00 0.000000e+00
1.920000e+02 0.000000e+00 0.000000e+00
1.960000e+02 0.000000e+00 0.000000e+00
2.000000e+02 0.000000e+00 0.000000e+00
2.040000e+02 0.000000e+00 0.000000e+00
2.080000e+02 0.000000e+00 0.000000e+00
2.120000e+02 0.000000e+00 0.000000e+00
2.160000e+02 0.000000e+00 0.000000e+00
2.200000e+02 0.000000e+00 0.000000e+00
2.240000e+02 0.000000e+00 0.000000e+00
2.280000e+02 0.000000e+00 0.000000e+00
2.320000e+02 0.000000e+00 0.000000e+00
2.360000e+02 0.000000e+00 0.000000e+00
2.400000e+02 0.000000e+00 0.000000e+00
2.440000e+02 0.000000e+00 0.000000e+00
2.480000e+02 0.000000e+00 0.000000e+00
2.520000e+02 0.000000e+00 0.000000e+00
2.560000e+02 0.000000e+00 0.000000e+00
2.600000e+02 0.000000e+00 0.000000e+00
2.640000e+02 0.000000e+00 0.000000e+00
2.680000e+02 0.000000e+00 0.000000e+00
2.720000e+02 0.000000e+00 0.000000e+00
2.760000e+02 0.000000e+00 0.000000e+00
2.800000e+02 0.000000e+00 0.000000e+00
2.840000e+02 0.000000e+00 0.000000e+00
2.880000e+02 0.000000e+00 0.000000e+00
2.920000e+02 0.000000e+00 0.000000e+00
2.960000e+02 0.000000e+00 0.000000e+00
3.000000e+02 0.000000e+00 0.000000e+00
3.040000e+02 0.000000e+00 0.000000e+00
3.080000e+02 0.000000e+00 0.000000e+00
3.120000e+02 0.000000e+00 0.000000e+00
3.160000e+02 0.000000e+00 0.000000e+00
3.200000e+02 0.000000e+00 0.000000e+00
3.240000e+02 0.000000e+00 0.000000e+00
3.280000e+02 0.000000e+00 0.000000e+00
3.320000e+02 0.000000e+00 0.000000e+00
3.360000e+02 0.000000e+00 0.000000e+00
3.400000e+02 0.000000e+00 0.000000e+00
3.440000e+02 0.000000e+00 0.000000e+00
3.480000e+02 0.000000e+00 0.000000e+00
3.520000e+02 0.000000e+00 0.000000e+00
3.560000e+02 0.000000e+00 0.000000e+00
3.600000e+02 0.000000e+00 0.000000e+00
3.640000e+02 0.000000e+00 0.000000e+00
3.680000e+02 0.000000e+00 0.000000e+00
3.720000e+02 0.000000e+00 0.000000e+00
3.760000e+02 0.000000e+00 0.000000e+00
3.800000e+02 0.000000e+00 0.000000e+00
3.840000e+02 0.000000e+00 0.000000e+00
3.880000e+02 0.000000e+00 0.000000e+00
3.920000e+02 0.000000e+00 0.000000e+00
3.960000e+02 0.000000e+00 0.000000e+00
4.000000e+02 0.000000e+00 0.000000e+00
4.040000e+02 0.000000e+00 0.000000e+00
4.080000e+02 0.000000e+00 0.000000e+00
4.120000e+02 0.000000e+00 0.000000e+00
4.160000e+02 0.000000e+00 0.000000e+00
4.200000e+02 0.000000e+00 0.000000e+00
4.240000e+02 0.000000e+00 0.000000e+00
4.280000e+02 0.000000e+00 0.000000e+00
4.320000e+02 0.000000e+00 0.000000e+00
4.360000e+02 0.000000e+00 0.000000e+00
4.400000e+02 0.000000e+00 0.000000e+00
4.440000e+02 0.000000e+00 0.000000e+00
4.480000e+02 0.000000e+00 0.000000e+00
4.520000e+02 0.000000e+00 0.000000e+00
4.560000e+02 0.000000e+00 0.000000e+00
4.600000e+02 0.000000e+00 0.000000e+00
4.640000e+02 0.000000e+00 0.000000e+00
4.680000e+02 0.000000e+00 0.000000e+00
4.720000e+02 0.000000e+00 0.000000e+00
4.760000e+02 0.000000e+00 0.000000e+00
4.800000e+02 0.000000e+00 0.000000e+00
4.840000e+02 0.000000e+00 0.000000e+00
4.880000e+02 0.000000e+00 0.000000e+00
4.920000e+02 0.000000e+00 0.000000e+00
4.960000e+02 0.000000e+00 0.000000e+00
5.000000e+02 0.000000e+00 0.000000e+00
5.040000e+02 0.000000e+00 0.000000e+00
5.080000e+02 0.000000e+00 0.000000e+00
5.120000e+02 0.000000e+00 0.000000e+00
5.160000e+02 0.000000e+00 0.000000e+00
5.200000e+02 0.000000e+00 0.000000e+00
5.240000e+02 0.000000e+00 0.000000e+00
5.280000e+02 0.000000e+00 0.000000e+00
5.320000e+02 0.000000e+00 0.000000e+00
5.360000e+02 0.000000e+00 0.000000e+00
5.400000e+02 0.000000e+00 0.000000e+00
5.440000e+02 0.000000e+00 0.000000e+00
5.480000e+02 0.000000e+00 0.000000e+00
5.520000e+02 0.000000e+00 0.000000e+00
5.560000e+02 0.000000e+00 0.000000e+00
5.600000e+02 0.000000e+00 0.000000e+00
5.640000e+02 0.000000e+00 0.000000e+00
5.680000e+02 0.000000e+00 0.000000e+00
5.720000e+02 0.000000e+00 0.000000e+00
5.760000e+02 0.000000e+00 0.000000e+00
5.800000e+02 0.000000e+00 0.000000e+00
5.840000e+02 0.000000e+00 0.000000e+00
5.880000e+02 0.000000e+00 0.000000e+00
5.920000e+02 0.000000e+00 0.000000e+00
5.960000e+02 0.000000e+00 0.000000e+00
6.000000e+02 0.000000e+00 0.000000e+00
0.000000e+00 4.000000e+00 0.000000e+00
4.000000e+00 4.000000e+00 0.000000e+00
8.000000e+00 4.000000e+00 0.000000e+00
1.200000e+01 4.000000e+00 0.000000e+00
1.600000e+01 4.000000e+00 0.000000e+00
2.000000e+01 4.000000e+00 0.000000e+00
2.400000e+01 4.000000e+00 0.000000e+00
2.800000e+01 4.000000e+00 0.000000e+00
3.200000e+01 4.000000e+00 0.000000e+00
3.600000e+01 4.000000e+00 0.000000e+00
4.000000e+01 4.000000e+00 0.000000e+00
4.400000e+01 4.000000e+00 0.000000e+00
4.800000e+01 4.000000e+00 0.000000e+00
5.200000e+01 4.000000e+00 0.000000e+00
5.600000e+01 4.000000e+00 0.000000e+00
6.000000e+01 4.000000e+00 0.000000e+00
6.400000e+01 4.000000e+00 0.000000e+00
6.800000e+01 4.000000e+00 0.000000e+00
7.200000e+01 4.000000e+00 0.000000e+00
7.600000e+01 4.000000e+00 0.000000e+00
8.000000e+01 4.000000e+00 0.000000e+00
8.400000e+01 4.000000e+00 0.000000e+00
8.800000e+01 4.000000e+00 0.000000e+00
9.200000e+01 4.000000e+00 0.000000e+00
9.600000e+01 4.000000e+00 0.000000e+00
1.000000e+02 4.000000e+00 0.000000e+00
1.040000e+02 4.000000e+00 0.000000e+00
1.080000e+02 4.000000e+00 0.000000e+00
1.120000e+02 4.000000e+00 0.000000e+00
1.160000e+02 4.000000e+00 0.000000e+00
1.200000e+02 4.000000e+00 0.000000e+00
1.240000e+02 4.000000e+00 0.000000e+00
1.280000e+02 4.000000e+00 0.000000e+00
1.320000e+02 4.000000e+00 0.000000e+00
1.360000e+02 4.000000e+00 0.000000e+00
1.400000e+02 4.000000e+00 0.000000e+00
1.440000e+02 4.000000e+00 0.000000e+00
1.480000e+02 4.000000e+00 0.000000e+00
1.520000e+02 4.000000e+00 0.000000e+00
1.560000e+02 4.000000e+00 0.000000e+00
1.600000e+02 4.000000e+00 0.000000e+00
1.640000e+02 4.000000e+00 0.000000e+00
1.680000e+02 4.000000e+00 0.000000e+00
1.720000e+02 4.000000e+00 0.000000e+00
1.760000e+02 4.000000e+00 0.000000e+00
1.800000e+02 4.000000e+00 0.000000e+00
1.840000e+02 4.000000e+00 0.000000e+00
1.880000e+02 4.000000e+00 0.000000e+00
1.920000e+02 4.000000e+00 0.000000e+00
1.960000e+02 4.000000e+00 0.000000e+00
2.000000e+02 4.000000e+00 0.000000e+00
2.040000e+02 4.000000e+00 0.000000e+00
2.080000e+02 4.000000e+00 0.000000e+00
2.120000e+02 4.000000e+00 0.000000e+00
2.160000e+02 4.000000e+00 0.000000e+00
2.200000e+02 4.000000e+00 0.000000e+00
2.240000e+02 4.000000e+00 0.000000e+00
2.280000e+02 4.000000e+00 0.000000e+00
2.320000e+02 4.000000e+00 0.000000e+00
2.360000e+02 4.000000e+00 0.000000e+00
2.400000e+02 4.000000e+00 0.000000e+00
2.440000e+02 4.000000e+00 0.000000e+00
2.480000e+02 4.000000e+00 0.000000e+00
2.520000e+02 4.000000e+00 0.000000e+00
2.560000e+02 4.000000e+00 0.000000e+00
2.600000e+02 4.000000e+00 0.000000e+00
2.640000e+02 4.000000e+00 0.000000e+00
2.680000e+02 4.000000e+00 0.000000e+00
2.720000e+02 4.000000e+00 0.000000e+00
2.760000e+02 4.000000e+00 0.000000e+00
2.800000e+02 4.000000e+00 0.000000e+00
2.840000e+02 4.000000e+00 0.000000e+00
2.880000e+02 4.000000e+00 0.000000e+00
2.920000e+02 4.000000e+00 0.000000e+00
2.960000e+02 4.000000e+00 0.000000e+00
3.000000e+02 4.000000e+00 0.000000e+00
3.040000e+02 4.000000e+00 0.000000e+00
3.080000e+02 4.000000e+00 0.000000e+00
3.120000e+02 4.000000e+00 0.000000e+00
3.160000e+02 4.000000e+00 0.000000e+00
3.200000e+02 4.000000e+00 0.000000e+00
3.240000e+02 4.000000e+00 0.000000e+00
3.280000e+02 4.000000e+00 0.000000e+00
3.320000e+02 4.000000e+00 0.000000e+00
3.360000e+02 4.000000e+00 0.000000e+00
3.400000e+02 4.000000e+00 0.000000e+00
3.440000e+02 4.000000e+00 0.000000e+00
3.480000e+02 4.000000e+00 0.000000e+00
3.520000e+02 4.000000e+00 0.000000e+00
3.560000e+02 4.000000e+00 0.000000e+00
3.600000e+02 4.000000e+00 0.000000e+00
3.640000e+02 4.000000e+00 0.000000e+00
3.680000e+02 4.000000e+00 0.000000e+00
[...]
<PointData>
<DataArray Name="T" type="Float64" NumberOfComponents="1" format="ascii">
1.223435e+03
1.224021e+03
1.225777e+03
1.228699e+03
1.232780e+03
1.238011e+03
1.244380e+03
1.251871e+03
1.260468e+03
1.270149e+03
1.280892e+03
1.292674e+03
1.305465e+03
1.319237e+03
1.333958e+03
1.349594e+03
1.366109e+03
1.383466e+03
1.401625e+03
1.420545e+03
1.440183e+03
1.460495e+03
1.481435e+03
1.502955e+03
1.525001e+03
1.547517e+03
1.567341e+03
1.587515e+03
1.607985e+03
1.628701e+03
1.649616e+03
1.670685e+03
1.691867e+03
1.713118e+03
1.734396e+03
1.755661e+03
1.776871e+03
1.797986e+03
1.818968e+03
1.839779e+03
1.860381e+03
1.880741e+03
1.900823e+03
1.920594e+03
1.940023e+03
1.959080e+03
1.977737e+03
1.995965e+03
2.013739e+03
2.031036e+03
2.047831e+03
2.064104e+03
2.079836e+03
2.095006e+03
2.109599e+03
2.123597e+03
2.136988e+03
2.149757e+03
2.161892e+03
2.173383e+03
2.184218e+03
2.194391e+03
2.203891e+03
2.212713e+03
2.220850e+03
2.228297e+03
2.235048e+03
2.241099e+03
2.246448e+03
2.251090e+03
2.255024e+03
2.258246e+03
2.260757e+03
2.262554e+03
2.263636e+03
2.264003e+03
2.263655e+03
2.262592e+03
2.260814e+03
2.258323e+03
2.255119e+03
2.251204e+03
2.246581e+03
2.241252e+03
2.235220e+03
2.228488e+03
2.221061e+03
2.212944e+03
2.204141e+03
2.194660e+03
2.184508e+03
2.173692e+03
2.162221e+03
2.150106e+03
2.137357e+03
2.123986e+03
2.110007e+03
2.095434e+03
2.080283e+03
2.064571e+03
2.048317e+03
2.031541e+03
2.014263e+03
1.996507e+03
1.978297e+03
1.959658e+03
1.940619e+03
1.921206e+03
1.901452e+03
1.881386e+03
1.861042e+03
1.840454e+03
1.819658e+03
1.798690e+03
1.777588e+03
1.756391e+03
1.735138e+03
1.713871e+03
1.692630e+03
1.671458e+03
1.650398e+03
1.629491e+03
1.608783e+03
1.588320e+03
1.568153e+03
1.548334e+03
1.525824e+03
1.503783e+03
1.482268e+03
1.461332e+03
1.441023e+03
1.421388e+03
1.402471e+03
1.384314e+03
1.366959e+03
1.350445e+03
1.334811e+03
1.320090e+03
1.306319e+03
1.293528e+03
1.281747e+03
1.271003e+03
1.261322e+03
1.252726e+03
1.245234e+03
1.238865e+03
1.233634e+03
1.229553e+03
1.226630e+03
1.224874e+03
1.224288e+03
1.223246e+03
1.223832e+03
1.225588e+03
1.228509e+03
1.232589e+03
1.237819e+03
1.244186e+03
1.251675e+03
1.260269e+03
1.269947e+03
1.280688e+03
1.292466e+03
1.305254e+03
1.319022e+03
1.333739e+03
1.349371e+03
1.365881e+03
1.383234e+03
1.401388e+03
1.420303e+03
1.439936e+03
1.460243e+03
1.481179e+03
1.502696e+03
1.524742e+03
1.547259e+03
1.567085e+03
1.587260e+03
1.607728e+03
1.628440e+03
1.649351e+03
1.670416e+03
1.691593e+03
1.712839e+03
1.734113e+03
1.755373e+03
1.776579e+03
1.797690e+03
1.818668e+03
1.839474e+03
1.860073e+03
1.880429e+03
1.900508e+03
1.920276e+03
1.939702e+03
1.958756e+03
1.977409e+03
1.995635e+03
2.013406e+03
2.030700e+03
2.047494e+03
2.063765e+03
2.079494e+03
2.094662e+03
2.109253e+03
2.123250e+03
2.136639e+03
2.149407e+03
2.161541e+03
2.173030e+03
2.183865e+03
2.194036e+03
2.203536e+03
2.212357e+03
2.220493e+03
2.227939e+03
2.234690e+03
2.240741e+03
2.246089e+03
2.250731e+03
2.254664e+03
2.257887e+03
2.260397e+03
2.262194e+03
2.263276e+03
2.263643e+03
2.263295e+03
2.262232e+03
2.260454e+03
2.257963e+03
2.254760e+03
2.250845e+03
2.246222e+03
2.240894e+03
2.234862e+03
2.228131e+03
2.220704e+03
2.212588e+03
2.203786e+03
2.194306e+03
2.184155e+03
2.173339e+03
2.161870e+03
2.149756e+03
2.137008e+03
2.123639e+03
2.109661e+03
2.095090e+03
2.079941e+03
2.064231e+03
2.047979e+03
2.031205e+03
2.013930e+03
1.996176e+03
1.977969e+03
1.959333e+03
1.940297e+03
1.920888e+03
1.901136e+03
1.881074e+03
1.860734e+03
1.840150e+03
1.819357e+03
1.798393e+03
1.777295e+03
1.756103e+03
1.734854e+03
1.713592e+03
1.692356e+03
1.671188e+03
1.650133e+03
1.629231e+03
1.608526e+03
1.588065e+03
1.567896e+03
1.548076e+03
1.525564e+03
1.503524e+03
1.482012e+03
1.461080e+03
1.440776e+03
1.421146e+03
1.402233e+03
1.384081e+03
1.366731e+03
1.350221e+03
1.334591e+03
1.319875e+03
1.306107e+03
1.293319e+03
1.281542e+03
1.270801e+03
1.261122e+03
1.252529e+03
1.245039e+03
1.238672e+03
1.233443e+03
1.229362e+03
1.226441e+03
1.224685e+03
1.224099e+03
1.222681e+03
1.223267e+03
1.225021e+03
1.227939e+03
1.232016e+03
1.237241e+03
1.243603e+03
1.251085e+03
1.259672e+03
1.269342e+03
1.280074e+03
1.291842e+03
1.304619e+03
1.318376e+03
1.333081e+03
1.348700e+03
1.365198e+03
1.382536e+03
1.400676e+03
1.419577e+03
1.439195e+03
1.459488e+03
1.480410e+03
1.501916e+03
1.523960e+03
1.546484e+03
1.566319e+03
1.586497e+03
1.606960e+03
1.627661e+03
1.648557e+03
1.669607e+03
1.690770e+03
1.712003e+03
1.733263e+03
1.754510e+03
1.775703e+03
1.796802e+03
1.817767e+03
1.838563e+03
1.859150e+03
1.879495e+03
1.899563e+03
1.919321e+03
1.938737e+03
1.957782e+03
1.976427e+03
1.994644e+03
2.012408e+03
2.029695e+03
2.046481e+03
2.062746e+03
2.078469e+03
2.093632e+03
2.108217e+03
2.122209e+03
2.135594e+03
2.148357e+03
2.160488e+03
2.171973e+03
2.182805e+03
2.192973e+03
2.202471e+03
2.211290e+03
2.219424e+03
2.226868e+03
2.233617e+03
2.239666e+03
2.245013e+03
2.249654e+03
2.253587e+03
2.256809e+03
2.259318e+03
2.261115e+03
2.262196e+03
2.262563e+03
2.262215e+03
2.261152e+03
2.259375e+03
2.256885e+03
2.253682e+03
2.249768e+03
2.245146e+03
2.239819e+03
2.233788e+03
2.227059e+03
2.219634e+03
2.211520e+03
2.202720e+03
2.193243e+03
2.183094e+03
2.172282e+03
2.160816e+03
2.148706e+03
2.135962e+03
2.122597e+03
2.108625e+03
2.094059e+03
2.078915e+03
2.063212e+03
2.046966e+03
2.030199e+03
2.012931e+03
1.995185e+03
1.976986e+03
1.958359e+03
1.939332e+03
1.919932e+03
1.900191e+03
1.880139e+03
1.859810e+03
1.839237e+03
1.818456e+03
1.797504e+03
1.776419e+03
1.755238e+03
1.734003e+03
1.712754e+03
1.691532e+03
1.670379e+03
1.649337e+03
1.628450e+03
1.607757e+03
1.587301e+03
1.567129e+03
1.547300e+03
1.524781e+03
1.502743e+03
1.481241e+03
1.460323e+03
1.440034e+03
1.420418e+03
1.401521e+03
1.383383e+03
1.366046e+03
1.349550e+03
1.333932e+03
1.319228e+03
1.305471e+03
1.292694e+03
1.280927e+03
1.270195e+03
1.260525e+03
1.251938e+03
1.244455e+03
1.238094e+03
1.232868e+03
1.228792e+03
1.225873e+03
1.224118e+03
1.223533e+03
1.221741e+03
1.222326e+03
1.224077e+03
1.226992e+03
1.231063e+03
1.236280e+03
1.242633e+03
1.250105e+03
1.258679e+03
1.268336e+03
1.279052e+03
1.290804e+03
1.303563e+03
1.317301e+03
1.331986e+03
1.347584e+03
1.364060e+03
1.381375e+03
1.399492e+03
1.418368e+03
1.437961e+03
1.458229e+03
1.479125e+03
1.500608e+03
1.522645e+03
1.545190e+03
1.565052e+03
1.585242e+03
1.605690e+03
1.626364e+03
1.647234e+03
1.668261e+03
1.689400e+03
1.710610e+03
1.731848e+03
1.753073e+03
1.774245e+03
1.795323e+03
1.816268e+03
1.837044e+03
1.857613e+03
1.877940e+03
1.897990e+03
1.917731e+03
1.937131e+03
1.956161e+03
1.974791e+03
1.992995e+03
2.010746e+03
2.028020e+03
2.044795e+03
2.061048e+03
2.076761e+03
2.091915e+03
2.106491e+03
2.120475e+03
2.133852e+03
2.146609e+03
2.158733e+03
2.170213e+03
2.181039e+03
2.191203e+03
2.200696e+03
2.209510e+03
2.217641e+03
2.225082e+03
2.231829e+03
2.237876e+03
2.243221e+03
2.247860e+03
2.251791e+03
2.255012e+03
2.257521e+03
2.259316e+03
2.260398e+03
2.260764e+03
2.260417e+03
2.259354e+03
2.257577e+03
2.255087e+03
2.251886e+03
2.247974e+03
2.243354e+03
2.238028e+03
2.232000e+03
2.225273e+03
2.217851e+03
2.209740e+03
2.200945e+03
2.191471e+03
2.181327e+03
2.170521e+03
2.159060e+03
2.146956e+03
2.134219e+03
2.120862e+03
2.106898e+03
2.092341e+03
2.077207e+03
2.061513e+03
2.045278e+03
2.028523e+03
2.011267e+03
1.993534e+03
1.975349e+03
1.956737e+03
1.937724e+03
1.918341e+03
1.898616e+03
1.878582e+03
1.858271e+03
1.837717e+03
1.816955e+03
1.796023e+03
1.774958e+03
1.753799e+03
1.732586e+03
1.711359e+03
1.690160e+03
1.669030e+03
1.648013e+03
1.627151e+03
1.606484e+03
1.586043e+03
1.565859e+03
1.546003e+03
1.523464e+03
1.501433e+03
1.479955e+03
1.459062e+03
1.438798e+03
1.419208e+03
1.400334e+03
1.382220e+03
1.364906e+03
1.348432e+03
1.332835e+03
1.318151e+03
1.304413e+03
1.291654e+03
1.279903e+03
1.269186e+03
1.259529e+03
1.250955e+03
1.243483e+03
1.237130e+03
1.231913e+03
1.227842e+03
1.224927e+03
1.223175e+03
1.222591e+03
1.220428e+03
1.221011e+03
1.222759e+03
1.225668e+03
1.229730e+03
1.234938e+03
1.241277e+03
1.248734e+03
1.257292e+03
1.266929e+03
1.277625e+03
1.289353e+03
1.302088e+03
1.315800e+03
1.330457e+03
1.346025e+03
1.362470e+03
1.379753e+03
1.397836e+03
1.416678e+03
1.436237e+03
1.456469e+03
1.477328e+03
1.498771e+03
1.520751e+03
1.543341e+03
1.563332e+03
1.583529e+03
1.603917e+03
1.624551e+03
1.645385e+03
1.666377e+03
1.687484e+03
1.708662e+03
1.729869e+03
1.751064e+03
1.772205e+03
1.793255e+03
1.814172e+03
1.834920e+03
1.855463e+03
1.875764e+03
1.895790e+03
1.915508e+03
1.934886e+03
1.953894e+03
1.972503e+03
1.990688e+03
2.008420e+03
2.025677e+03
2.042436e+03
2.058674e+03
2.074373e+03
2.089512e+03
2.104077e+03
2.118049e+03
2.131416e+03
2.144163e+03
2.156277e+03
2.167749e+03
2.178568e+03
2.188725e+03
2.198212e+03
2.207021e+03
2.215147e+03
2.222584e+03
2.229326e+03
2.235370e+03
2.240712e+03
2.245349e+03
2.249278e+03
2.252497e+03
2.255005e+03
2.256800e+03
2.257880e+03
2.258247e+03
2.257899e+03
2.256837e+03
2.255061e+03
2.252573e+03
2.249373e+03
2.245462e+03
2.240845e+03
2.235522e+03
2.229497e+03
2.222774e+03
2.215357e+03
2.207250e+03
2.198460e+03
2.188993e+03
2.178855e+03
2.168056e+03
2.156604e+03
2.144509e+03
2.131781e+03
2.118435e+03
2.104482e+03
2.089937e+03
2.074816e+03
2.059137e+03
2.042917e+03
2.026178e+03
2.008939e+03
1.991225e+03
1.973059e+03
1.954467e+03
1.935476e+03
1.916115e+03
1.896414e+03
1.876404e+03
1.856118e+03
1.835591e+03
1.814857e+03
1.793953e+03
1.772917e+03
1.751787e+03
1.730604e+03
1.709408e+03
1.688241e+03
1.667144e+03
1.646161e+03
1.625335e+03
1.604709e+03
1.584328e+03
1.564137e+03
1.544151e+03
1.521568e+03
1.499592e+03
1.478154e+03
1.457299e+03
1.437071e+03
1.417515e+03
1.398676e+03
1.380594e+03
1.363313e+03
1.346869e+03
1.331302e+03
1.316646e+03
1.302935e+03
1.290201e+03
1.278472e+03
1.267777e+03
1.258139e+03
1.249582e+03
1.242125e+03
1.235785e+03
1.230577e+03
1.226515e+03
1.223606e+03
1.221858e+03
1.221275e+03
1.218744e+03
1.219326e+03
1.221069e+03
1.223970e+03
1.228023e+03
1.233216e+03
1.239540e+03
1.246977e+03
1.255513e+03
1.265126e+03
1.275794e+03
1.287494e+03
1.300196e+03
1.313874e+03
1.328495e+03
1.344025e+03
1.360430e+03
1.377672e+03
1.395713e+03
1.414511e+03
1.434025e+03
1.454211e+03
1.475023e+03
1.496411e+03
1.518322e+03
1.540597e+03
1.561417e+03
1.581317e+03
1.601638e+03
1.622220e+03
1.643010e+03
1.663959e+03
1.685024e+03
1.706162e+03
1.727329e+03
1.748484e+03
1.769588e+03
1.790600e+03
1.811481e+03
1.832194e+03
1.852703e+03
1.872971e+03
1.892966e+03
1.912653e+03
1.932002e+03
1.950982e+03
1.969566e+03
1.987725e+03
2.005434e+03
2.022668e+03
2.039406e+03
2.055625e+03
2.071304e+03
2.086427e+03
2.100976e+03
2.114933e+03
2.128286e+03
2.141020e+03
2.153123e+03
2.164584e+03
2.175394e+03
2.185542e+03
2.195021e+03
2.203823e+03
2.211943e+03
2.219374e+03
2.226111e+03
2.232151e+03
2.237489e+03
2.242123e+03
2.246049e+03
2.249266e+03
2.251772e+03
2.253566e+03
2.254646e+03
2.255012e+03
2.254665e+03
2.253603e+03
2.251828e+03
2.249341e+03
2.246143e+03
2.242236e+03
2.237621e+03
2.232302e+03
2.226281e+03
2.219563e+03
2.212151e+03
2.204051e+03
2.195268e+03
2.185808e+03
2.175680e+03
2.164890e+03
2.153448e+03
2.141365e+03
2.128650e+03
2.115317e+03
2.101379e+03
2.086850e+03
2.071746e+03
2.056085e+03
2.039885e+03
2.023167e+03
2.005951e+03
1.988260e+03
1.970119e+03
1.951553e+03
1.932590e+03
1.913258e+03
1.893587e+03
1.873608e+03
1.853355e+03
1.832862e+03
1.812163e+03
1.791295e+03
1.770296e+03
1.749205e+03
1.728061e+03
1.706905e+03
1.685778e+03
1.664723e+03
1.643782e+03
1.623001e+03
1.602427e+03
1.582112e+03
1.562218e+03
1.541404e+03
1.519135e+03
1.497229e+03
1.475845e+03
1.455037e+03
1.434855e+03
1.415344e+03
1.396548e+03
1.378510e+03
1.361269e+03
1.344866e+03
1.329336e+03
1.314716e+03
1.301039e+03
1.288337e+03
1.276638e+03
1.265969e+03
1.256356e+03
1.247821e+03
1.240383e+03
1.234060e+03
1.228866e+03
1.224813e+03
1.221912e+03
1.220168e+03
1.219587e+03
1.216693e+03
1.217273e+03
1.219011e+03
1.221903e+03
1.225943e+03
1.231120e+03
1.237423e+03
1.244838e+03
1.253346e+03
1.262929e+03
1.273565e+03
1.285228e+03
1.297892e+03
1.311528e+03
1.326104e+03
1.341589e+03
1.357945e+03
1.375137e+03
1.393126e+03
1.411870e+03
1.431330e+03
1.451460e+03
1.472216e+03
1.493547e+03
1.515388e+03
1.537655e+03
1.558656e+03
1.578581e+03
1.598842e+03
1.619372e+03
1.640111e+03
1.661010e+03
1.682025e+03
1.703113e+03
1.724231e+03
1.745339e+03
1.766396e+03
1.787362e+03
1.808199e+03
1.828869e+03
1.849336e+03
1.869564e+03
1.889520e+03
1.909170e+03
1.928484e+03
1.947430e+03
1.965981e+03
1.984109e+03
2.001789e+03
2.018996e+03
2.035708e+03
2.051902e+03
2.067560e+03
2.082661e+03
2.097190e+03
2.111129e+03
2.124465e+03
2.137183e+03
2.149272e+03
2.160720e+03
2.171518e+03
2.181655e+03
2.191124e+03
2.199918e+03
2.208030e+03
2.215454e+03
2.222185e+03
2.228219e+03
2.233553e+03
2.238182e+03
2.242106e+03
2.245320e+03
2.247824e+03
2.249616e+03
2.250695e+03
2.251061e+03
2.250714e+03
2.249653e+03
2.247880e+03
2.245395e+03
2.242199e+03
2.238295e+03
2.233684e+03
2.228369e+03
2.222354e+03
2.215642e+03
2.208237e+03
2.200144e+03
2.191370e+03
2.181920e+03
2.171802e+03
2.161024e+03
2.149595e+03
2.137526e+03
2.124827e+03
2.111511e+03
2.097591e+03
2.083081e+03
2.067999e+03
2.052361e+03
2.036185e+03
2.019492e+03
2.002303e+03
1.984641e+03
1.966531e+03
1.947998e+03
1.929068e+03
1.909771e+03
1.890138e+03
1.870198e+03
1.849985e+03
1.829533e+03
1.808877e+03
1.788053e+03
1.767100e+03
1.746056e+03
1.724959e+03
1.703852e+03
1.682774e+03
1.661769e+03
1.640879e+03
1.620149e+03
1.599625e+03
1.579372e+03
1.559453e+03
1.538457e+03
1.516196e+03
1.494361e+03
1.473033e+03
1.452282e+03
1.432155e+03
1.412699e+03
1.393956e+03
1.375970e+03
1.358780e+03
1.342424e+03
1.326941e+03
1.312365e+03
1.298730e+03
1.286067e+03
1.274404e+03
1.263768e+03
1.254185e+03
1.245677e+03
1.238262e+03
1.231958e+03
1.226781e+03
1.222741e+03
1.219849e+03
1.218111e+03
1.217531e+03
1.214280e+03
1.214858e+03
1.216589e+03
1.219470e+03
1.223495e+03
1.228653e+03
1.234932e+03
1.242319e+03
1.250797e+03
1.260344e+03
1.270941e+03
1.282561e+03
1.295179e+03
1.308766e+03
1.323291e+03
1.338720e+03
1.355019e+03
1.372151e+03
1.390078e+03
1.408760e+03
1.428155e+03
1.448220e+03
1.468912e+03
1.490184e+03
1.511997e+03
1.534290e+03
1.555345e+03
1.575296e+03
1.595533e+03
1.616011e+03
1.636692e+03
1.657533e+03
1.678489e+03
1.699519e+03
1.720580e+03
1.741631e+03
1.762633e+03
1.783545e+03
1.804330e+03
1.824949e+03
1.845366e+03
1.865547e+03
1.885457e+03
1.905063e+03
1.924334e+03
1.943240e+03
1.961753e+03
1.979844e+03
1.997490e+03
2.014664e+03
2.031345e+03
2.047511e+03
2.063141e+03
2.078217e+03
2.092722e+03
2.106640e+03
2.119955e+03
2.132655e+03
2.144727e+03
2.156160e+03
2.166943e+03
2.177067e+03
2.186524e+03
2.195307e+03
2.203410e+03
2.210825e+03
2.217549e+03
2.223577e+03
2.228905e+03
2.233530e+03
2.237449e+03
2.240660e+03
2.243162e+03
2.244952e+03
2.246030e+03
2.246396e+03
2.246049e+03
2.244989e+03
2.243217e+03
2.240735e+03
2.237542e+03
2.233642e+03
2.229035e+03
2.223726e+03
2.217717e+03
2.211012e+03
2.203615e+03
2.195532e+03
2.186768e+03
2.177330e+03
2.167225e+03
2.156461e+03
2.145048e+03
2.132996e+03
2.120315e+03
2.107019e+03
2.093120e+03
2.078635e+03
2.063577e+03
2.047966e+03
2.031819e+03
2.015157e+03
1.998001e+03
1.980373e+03
1.962299e+03
1.943804e+03
1.924915e+03
1.905660e+03
1.886070e+03
1.866176e+03
1.846011e+03
1.825608e+03
1.805003e+03
1.784232e+03
1.763333e+03
1.742343e+03
1.721303e+03
1.700253e+03
1.679234e+03
1.658287e+03
1.637455e+03
1.616782e+03
1.596312e+03
1.576081e+03
1.556136e+03
1.535088e+03
1.512800e+03
1.490992e+03
1.469724e+03
1.449036e+03
1.428975e+03
1.409583e+03
1.390904e+03
1.372979e+03
1.355848e+03
1.339550e+03
1.324122e+03
1.309598e+03
1.296012e+03
1.283394e+03
1.271774e+03
1.261178e+03
1.251630e+03
1.243153e+03
1.235766e+03
1.229486e+03
1.224328e+03
1.220303e+03
1.217422e+03
1.215691e+03
1.215113e+03
1.211510e+03
1.212085e+03
1.213809e+03
1.216678e+03
1.220684e+03
1.225820e+03
1.232073e+03
1.239428e+03
1.247869e+03
1.257376e+03
1.267927e+03
1.279498e+03
1.292063e+03
1.305594e+03
1.320058e+03
1.335424e+03
1.351657e+03
1.368721e+03
1.386577e+03
1.405185e+03
1.424506e+03
1.444495e+03
1.465112e+03
1.486315e+03
1.508074e+03
1.530432e+03
1.551546e+03
1.571545e+03
1.591726e+03
1.612145e+03
1.632761e+03
1.653534e+03
1.674423e+03
1.695385e+03
1.716380e+03
1.737366e+03
1.758304e+03
1.779154e+03
1.799878e+03
1.820438e+03
1.840798e+03
1.860924e+03
1.880780e+03
1.900335e+03
1.919558e+03
1.938417e+03
1.956885e+03
1.974935e+03
1.992540e+03
2.009676e+03
2.026321e+03
2.042453e+03
2.058052e+03
2.073099e+03
2.087576e+03
2.101469e+03
2.114760e+03
2.127439e+03
2.139490e+03
2.150905e+03
2.161671e+03
2.171780e+03
2.181224e+03
2.189994e+03
2.198086e+03
2.205491e+03
2.212207e+03
2.218227e+03
2.223548e+03
2.228168e+03
2.232082e+03
2.235290e+03
2.237788e+03
2.239576e+03
2.240653e+03
2.241018e+03
2.240672e+03
2.239613e+03
2.237843e+03
2.235363e+03
2.232174e+03
2.228278e+03
2.223677e+03
2.218375e+03
2.212373e+03
2.205677e+03
2.198290e+03
2.190218e+03
2.181466e+03
2.172042e+03
2.161951e+03
2.151204e+03
2.139809e+03
2.127777e+03
2.115117e+03
2.101845e+03
2.087972e+03
2.073513e+03
2.058485e+03
2.042905e+03
2.026792e+03
2.010165e+03
1.993047e+03
1.975459e+03
1.957427e+03
1.938977e+03
1.920134e+03
1.900928e+03
1.881389e+03
1.861548e+03
1.841438e+03
1.821092e+03
1.800546e+03
1.779835e+03
1.758998e+03
1.738073e+03
1.717098e+03
1.696114e+03
1.675162e+03
1.654282e+03
1.633518e+03
1.612910e+03
1.592499e+03
1.572325e+03
1.552332e+03
1.531224e+03
1.508871e+03
1.487117e+03
1.465919e+03
1.445306e+03
1.425319e+03
1.406002e+03
1.387396e+03
1.369542e+03
1.352480e+03
1.336248e+03
1.320883e+03
1.306420e+03
1.292890e+03
1.280325e+03
1.268754e+03
1.258203e+03
1.248696e+03
1.240255e+03
1.232899e+03
1.226647e+03
1.221511e+03
1.217504e+03
1.214635e+03
1.212911e+03
1.212336e+03
1.208388e+03
1.208961e+03
1.210676e+03
1.213530e+03
1.217517e+03
1.222628e+03
1.228850e+03
1.236169e+03
1.244569e+03
1.254030e+03
1.264530e+03
1.276046e+03
1.288551e+03
1.302017e+03
1.316414e+03
1.331708e+03
1.347866e+03
1.364852e+03
1.382627e+03
1.401152e+03
1.420388e+03
1.440291e+03
1.460820e+03
1.481933e+03
1.503593e+03
1.525781e+03
1.547575e+03
1.567329e+03
1.587436e+03
1.607784e+03
1.628324e+03
1.649020e+03
1.669832e+03
1.690718e+03
1.711638e+03
1.732550e+03
1.753415e+03
1.774194e+03
1.794849e+03
1.815342e+03
1.835637e+03
1.855700e+03
1.875496e+03
1.894993e+03
1.914160e+03
1.932966e+03
1.951383e+03
1.969384e+03
1.986944e+03
2.004037e+03
2.020641e+03
2.036734e+03
2.052297e+03
2.067310e+03
2.081756e+03
2.095619e+03
2.108884e+03
2.121537e+03
2.133566e+03
2.144959e+03
2.155706e+03
2.165798e+03
2.175226e+03
2.183982e+03
2.192061e+03
2.199455e+03
2.206160e+03
2.212171e+03
2.217485e+03
2.222098e+03
2.226007e+03
2.229210e+03
2.231705e+03
2.233491e+03
2.234566e+03
2.234931e+03
2.234585e+03
2.233527e+03
2.231760e+03
2.229283e+03
2.226098e+03
2.222208e+03
2.217613e+03
2.212318e+03
2.206325e+03
2.199639e+03
2.192263e+03
2.184203e+03
2.175466e+03
2.166057e+03
2.155984e+03
2.145256e+03
2.133882e+03
2.121872e+03
2.109238e+03
2.095992e+03
2.082148e+03
2.067721e+03
2.052726e+03
2.037182e+03
2.021107e+03
2.004521e+03
1.987446e+03
1.969904e+03
1.951921e+03
1.933521e+03
1.914731e+03
1.895581e+03
1.876100e+03
1.856319e+03
1.836271e+03
1.815990e+03
1.795511e+03
1.774870e+03
1.754103e+03
1.733250e+03
1.712349e+03
1.691441e+03
1.670565e+03
1.649762e+03
1.629075e+03
1.608543e+03
1.588202e+03
1.568101e+03
1.548354e+03
1.526566e+03
1.504383e+03
1.482729e+03
1.461620e+03
1.441094e+03
1.421194e+03
1.401962e+03
1.383439e+03
1.365666e+03
1.348682e+03
1.332525e+03
1.317232e+03
1.302836e+03
1.289370e+03
1.276865e+03
1.265350e+03
1.254849e+03
1.245389e+03
1.236989e+03
1.229669e+03
1.223447e+03
1.218337e+03
1.214350e+03
1.211495e+03
1.209780e+03
1.209207e+03
1.204922e+03
1.205491e+03
1.207197e+03
1.210036e+03
1.214001e+03
1.219083e+03
1.225271e+03
1.232550e+03
1.240904e+03
1.250313e+03
1.260757e+03
1.272211e+03
1.284649e+03
1.298043e+03
1.312364e+03
1.327578e+03
1.343653e+03
1.360551e+03
1.378236e+03
1.396668e+03
1.415808e+03