<?xml version="1.0"?>
<VTKFile type="UnstructuredGrid" version="0.1">
<UnstructuredGrid>
<FieldData>
<DataArray Name="TIME" type="Float64" format="ascii" NumberOfTuples="1">
0.000000e+00
</DataArray>
</FieldData>
<FieldData>
<DataArray Name="CYCLE" type="Int32" format="ascii" NumberOfTuples="1">
0
</DataArray>
</FieldData>
<Piece NumberOfPoints="20" NumberOfCells="24">
<Points>
<DataArray NumberOfComponents="3" type="Float64" format="ascii">
1.000000e+00 5.000000e-01 -0.000000e+00
1.000000e+00 5.000000e-01 1.000000e+00
1.000000e+00 1.000000e+00 5.000000e-01
1.000000e+00 0.000000e+00 5.000000e-01
1.000000e+00 0.000000e+00 1.000000e+00
1.000000e+00 1.000000e+00 -0.000000e+00
1.000000e+00 0.000000e+00 -0.000000e+00
1.000000e+00 1.000000e+00 1.000000e+00
5.000000e-01 0.000000e+00 1.000000e+00
0.000000e+00 5.000000e-01 1.000000e+00
5.000000e-01 1.000000e+00 1.000000e+00
0.000000e+00 1.000000e+00 1.000000e+00
0.000000e+00 0.000000e+00 1.000000e+00
5.000000e-01 1.000000e+00 -0.000000e+00
0.000000e+00 1.000000e+00 5.000000e-01
0.000000e+00 1.000000e+00 -0.000000e+00
0.000000e+00 5.000000e-01 -0.000000e+00
0.000000e+00 0.000000e+00 5.000000e-01
0.000000e+00 0.000000e+00 -0.000000e+00
5.000000e-01 0.000000e+00 -0.000000e+00
</DataArray>
</Points>
<Cells>
<DataArray Name="connectivity" type="Int32" format="ascii">
0 6 19 3
5 13 2 0
19 0 3 13
0 3 13 1
13 2 0 1
1 4 3 8
7 2 10 1
3 1 8 10
1 3 13 10
2 13 10 1
19 3 8 10
3 19 13 10
8 12 17 9
8 17 16 9
14 8 16 9
19 8 17 16
8 19 14 16
19 10 8 14
10 8 14 9
11 10 14 9
19 13 10 14
13 15 14 16
19 13 14 16
18 19 17 16
</DataArray>
<DataArray Name="offsets" type="Int32" format="ascii">
4
8
12
16
20
24
28
32
36
40
44
48
52
56
60
64
68
72
76
80
84
88
92
96
</DataArray>
<DataArray Name="types" type="UInt8" format="ascii">
10
10
10
10
10
10
10
10
10
10
10
10
10
10
10
10
10
10
10
10
10
10
10
10
</DataArray>
</Cells>
<PointData>
<DataArray Name="mesh_vars/Nodes_Id" type="Float64" NumberOfComponents="1" format="ascii">
0.000000e+00
1.000000e+00
2.000000e+00
3.000000e+00
4.000000e+00
5.000000e+00
6.000000e+00
7.000000e+00
8.000000e+00
9.000000e+00
1.000000e+01
1.100000e+01
1.200000e+01
1.300000e+01
1.400000e+01
1.500000e+01
1.600000e+01
1.700000e+01
1.800000e+01
1.900000e+01
</DataArray>
<DataArray Name="mesh_vars/Nodes_Tag" type="Float64" NumberOfComponents="1" format="ascii">
0.000000e+00
0.000000e+00
0.000000e+00
0.000000e+00
0.000000e+00
0.000000e+00
0.000000e+00
0.000000e+00
0.000000e+00
0.000000e+00
0.000000e+00
0.000000e+00
0.000000e+00
0.000000e+00
0.000000e+00
0.000000e+00
0.000000e+00
0.000000e+00
0.000000e+00
0.000000e+00
</DataArray>
<DataArray Name="mesh_vars/Nodes_gDOF" type="Float64" NumberOfComponents="1" format="ascii">
0.000000e+00
1.000000e+00
2.000000e+00
3.000000e+00
4.000000e+00
5.000000e+00
6.000000e+00
7.000000e+00
8.000000e+00
9.000000e+00
1.000000e+01
1.100000e+01
1.200000e+01
1.300000e+01
1.400000e+01
1.500000e+01
1.600000e+01
1.700000e+01
1.800000e+01
1.900000e+01
</DataArray>
<DataArray Name="mesh_vars/Nodes_gNI" type="Float64" NumberOfComponents="1" format="ascii">
0.000000e+00
1.000000e+00
2.000000e+00
3.000000e+00
4.000000e+00
5.000000e+00
6.000000e+00
7.000000e+00
8.000000e+00
9.000000e+00
1.000000e+01
1.100000e+01
1.200000e+01
1.300000e+01
1.400000e+01
1.500000e+01
1.600000e+01
1.700000e+01
1.800000e+01
1.900000e+01
</DataArray>
<DataArray Name="mesh_vars/Nodes_grDfI" type="Float64" NumberOfComponents="1" format="ascii">
0.000000e+00
1.000000e+00
2.000000e+00
3.000000e+00
4.000000e+00
5.000000e+00
6.000000e+00
7.000000e+00
8.000000e+00
9.000000e+00
1.000000e+01
1.100000e+01
1.200000e+01
1.300000e+01
1.400000e+01
1.500000e+01
1.600000e+01
1.700000e+01
1.800000e+01
1.900000e+01
</DataArray>
<DataArray Name="mesh_vars/Nodes_grNI" type="Float64" NumberOfComponents="1" format="ascii">
0.000000e+00
1.000000e+00
2.000000e+00
3.000000e+00
4.000000e+00
5.000000e+00
6.000000e+00
7.000000e+00
8.000000e+00
9.000000e+00
1.000000e+01
1.100000e+01
1.200000e+01
1.300000e+01
1.400000e+01
1.500000e+01
1.600000e+01
1.700000e+01
1.800000e+01
1.900000e+01
</DataArray>
</PointData>
<CellData>
<DataArray Name="data" type="Float64" NumberOfComponents="1" format="ascii">
8.750000e-01
8.750000e-01
7.500000e-01
8.750000e-01
8.750000e-01
8.750000e-01
8.750000e-01
7.500000e-01
7.500000e-01
7.500000e-01
6.250000e-01
6.250000e-01
1.250000e-01
1.250000e-01
1.250000e-01
2.500000e-01
2.500000e-01
3.750000e-01
2.500000e-01
1.250000e-01
3.750000e-01
1.250000e-01
2.500000e-01
1.250000e-01
</DataArray>
<DataArray Name="mesh_vars/Elements_Color" type="Float64" NumberOfComponents="1" format="ascii">
0.000000e+00
1.000000e+00
2.000000e+00
3.000000e+00
4.000000e+00
1.000000e+00
0.000000e+00
5.000000e+00
6.000000e+00
7.000000e+00
4.000000e+00
8.000000e+00
0.000000e+00
2.000000e+00
3.000000e+00
6.000000e+00
7.000000e+00
9.000000e+00
1.000000e+01
1.000000e+00
1.100000e+01
0.000000e+00
5.000000e+00
1.000000e+00
</DataArray>
<DataArray Name="mesh_vars/Elements_Id" type="Float64" NumberOfComponents="1" format="ascii">
5.000000e+00
7.000000e+00
2.000000e+01
2.100000e+01
2.300000e+01
4.000000e+00
6.000000e+00
1.800000e+01
1.900000e+01
2.200000e+01
1.600000e+01
1.700000e+01
0.000000e+00
8.000000e+00
9.000000e+00
1.000000e+01
1.100000e+01
1.200000e+01
1.300000e+01
2.000000e+00
1.400000e+01
3.000000e+00
1.500000e+01
1.000000e+00
</DataArray>
<DataArray Name="mesh_vars/Elements_Owner" type="Float64" NumberOfComponents="1" format="ascii">
0.000000e+00
0.000000e+00
0.000000e+00
0.000000e+00
0.000000e+00
0.000000e+00
0.000000e+00
0.000000e+00
0.000000e+00
0.000000e+00
0.000000e+00
0.000000e+00
0.000000e+00
0.000000e+00
0.000000e+00
0.000000e+00
0.000000e+00
0.000000e+00
0.000000e+00
0.000000e+00
0.000000e+00
0.000000e+00
0.000000e+00
0.000000e+00
</DataArray>
<DataArray Name="mesh_vars/Elements_Tag" type="Float64" NumberOfComponents="1" format="ascii">
4.000000e+01
4.000000e+01
4.000000e+01
4.000000e+01
4.000000e+01
4.000000e+01
4.000000e+01
4.000000e+01
4.000000e+01
4.000000e+01
4.000000e+01
4.000000e+01
4.000000e+01
4.000000e+01
4.000000e+01
4.000000e+01
4.000000e+01
4.000000e+01
4.000000e+01
4.000000e+01
4.000000e+01
4.000000e+01
4.000000e+01
4.000000e+01
</DataArray>
</CellData>
</Piece>
</UnstructuredGrid>
</VTKFile>
