<?xml version="1.0"?>
<VTKFile type="UnstructuredGrid" version="0.1">
<UnstructuredGrid>
<Piece NumberOfPoints="3830" NumberOfCells="7422">
<Points>
<DataArray NumberOfComponents="3" type="Float64" format="ascii">
 0.000000e+00 0.000000e+00 0.000000e+00
 1.000000e+00 0.000000e+00 0.000000e+00
 1.000000e+00 1.000000e+00 0.000000e+00
 0.000000e+00 1.000000e+00 0.000000e+00
 1.694915e-02 0.000000e+00 0.000000e+00
 3.389831e-02 0.000000e+00 0.000000e+00
 5.084746e-02 0.000000e+00 0.000000e+00
 6.779661e-02 0.000000e+00 0.000000e+00
 8.474576e-02 0.000000e+00 0.000000e+00
 1.016949e-01 0.000000e+00 0.000000e+00
 1.186441e-01 0.000000e+00 0.000000e+00
 1.355932e-01 0.000000e+00 0.000000e+00
 1.525424e-01 0.000000e+00 0.000000e+00
 1.694915e-01 0.000000e+00 0.000000e+00
 1.864407e-01 0.000000e+00 0.000000e+00
 2.033898e-01 0.000000e+00 0.000000e+00
 2.203390e-01 0.000000e+00 0.000000e+00
 2.372881e-01 0.000000e+00 0.000000e+00
 2.542373e-01 0.000000e+00 0.000000e+00
 2.711864e-01 0.000000e+00 0.000000e+00
 2.881356e-01 0.000000e+00 0.000000e+00
 3.050847e-01 0.000000e+00 0.000000e+00
 3.220339e-01 0.000000e+00 0.000000e+00
 3.389831e-01 0.000000e+00 0.000000e+00
 3.559322e-01 0.000000e+00 0.000000e+00
 3.728814e-01 0.000000e+00 0.000000e+00
 3.898305e-01 0.000000e+00 0.000000e+00
 4.067797e-01 0.000000e+00 0.000000e+00
 4.237288e-01 0.000000e+00 0.000000e+00
 4.406780e-01 0.000000e+00 0.000000e+00
 4.576271e-01 0.000000e+00 0.000000e+00
 4.745763e-01 0.000000e+00 0.000000e+00
 4.915254e-01 0.000000e+00 0.000000e+00
 5.084746e-01 0.000000e+00 0.000000e+00
 5.254237e-01 0.000000e+00 0.000000e+00
 5.423729e-01 0.000000e+00 0.000000e+00
 5.593220e-01 0.000000e+00 0.000000e+00
 5.762712e-01 0.000000e+00 0.000000e+00
 5.932203e-01 0.000000e+00 0.000000e+00
 6.101695e-01 0.000000e+00 0.000000e+00
 6.271186e-01 0.000000e+00 0.000000e+00
 6.440678e-01 0.000000e+00 0.000000e+00
 6.610169e-01 0.000000e+00 0.000000e+00
 6.779661e-01 0.000000e+00 0.000000e+00
 6.949153e-01 0.000000e+00 0.000000e+00
 7.118644e-01 0.000000e+00 0.000000e+00
 7.288136e-01 0.000000e+00 0.000000e+00
 7.457627e-01 0.000000e+00 0.000000e+00
 7.627119e-01 0.000000e+00 0.000000e+00
 7.796610e-01 0.000000e+00 0.000000e+00
 7.966102e-01 0.000000e+00 0.000000e+00
 8.135593e-01 0.000000e+00 0.000000e+00
 8.305085e-01 0.000000e+00 0.000000e+00
 8.474576e-01 0.000000e+00 0.000000e+00
 8.644068e-01 0.000000e+00 0.000000e+00
 8.813559e-01 0.000000e+00 0.000000e+00
 8.983051e-01 0.000000e+00 0.000000e+00
 9.152542e-01 0.000000e+00 0.000000e+00
 9.322034e-01 0.000000e+00 0.000000e+00
 9.491525e-01 0.000000e+00 0.000000e+00
 9.661017e-01 0.000000e+00 0.000000e+00
 9.830508e-01 0.000000e+00 0.000000e+00
 1.000000e+00 1.694915e-02 0.000000e+00
 1.000000e+00 3.389831e-02 0.000000e+00
 1.000000e+00 5.084746e-02 0.000000e+00
 1.000000e+00 6.779661e-02 0.000000e+00
 1.000000e+00 8.474576e-02 0.000000e+00
 1.000000e+00 1.016949e-01 0.000000e+00
 1.000000e+00 1.186441e-01 0.000000e+00
 1.000000e+00 1.355932e-01 0.000000e+00
 1.000000e+00 1.525424e-01 0.000000e+00
 1.000000e+00 1.694915e-01 0.000000e+00
 1.000000e+00 1.864407e-01 0.000000e+00
 1.000000e+00 2.033898e-01 0.000000e+00
 1.000000e+00 2.203390e-01 0.000000e+00
 1.000000e+00 2.372881e-01 0.000000e+00
 1.000000e+00 2.542373e-01 0.000000e+00
 1.000000e+00 2.711864e-01 0.000000e+00
 1.000000e+00 2.881356e-01 0.000000e+00
 1.000000e+00 3.050847e-01 0.000000e+00
 1.000000e+00 3.220339e-01 0.000000e+00
 1.000000e+00 3.389831e-01 0.000000e+00
 1.000000e+00 3.559322e-01 0.000000e+00
 1.000000e+00 3.728814e-01 0.000000e+00
 1.000000e+00 3.898305e-01 0.000000e+00
 1.000000e+00 4.067797e-01 0.000000e+00
 1.000000e+00 4.237288e-01 0.000000e+00
 1.000000e+00 4.406780e-01 0.000000e+00
 1.000000e+00 4.576271e-01 0.000000e+00
 1.000000e+00 4.745763e-01 0.000000e+00
 1.000000e+00 4.915254e-01 0.000000e+00
 1.000000e+00 5.084746e-01 0.000000e+00
 1.000000e+00 5.254237e-01 0.000000e+00
 1.000000e+00 5.423729e-01 0.000000e+00
 1.000000e+00 5.593220e-01 0.000000e+00
 1.000000e+00 5.762712e-01 0.000000e+00
 1.000000e+00 5.932203e-01 0.000000e+00
 1.000000e+00 6.101695e-01 0.000000e+00
 1.000000e+00 6.271186e-01 0.000000e+00
 1.000000e+00 6.440678e-01 0.000000e+00
 1.000000e+00 6.610169e-01 0.000000e+00
 1.000000e+00 6.779661e-01 0.000000e+00
 1.000000e+00 6.949153e-01 0.000000e+00
 1.000000e+00 7.118644e-01 0.000000e+00
 1.000000e+00 7.288136e-01 0.000000e+00
 1.000000e+00 7.457627e-01 0.000000e+00
 1.000000e+00 7.627119e-01 0.000000e+00
 1.000000e+00 7.796610e-01 0.000000e+00
 1.000000e+00 7.966102e-01 0.000000e+00
 1.000000e+00 8.135593e-01 0.000000e+00
 1.000000e+00 8.305085e-01 0.000000e+00
 1.000000e+00 8.474576e-01 0.000000e+00
 1.000000e+00 8.644068e-01 0.000000e+00
 1.000000e+00 8.813559e-01 0.000000e+00
 1.000000e+00 8.983051e-01 0.000000e+00
 1.000000e+00 9.152542e-01 0.000000e+00
 1.000000e+00 9.322034e-01 0.000000e+00
 1.000000e+00 9.491525e-01 0.000000e+00
 1.000000e+00 9.661017e-01 0.000000e+00
 1.000000e+00 9.830508e-01 0.000000e+00
 9.830508e-01 1.000000e+00 0.000000e+00
 9.661017e-01 1.000000e+00 0.000000e+00
 9.491525e-01 1.000000e+00 0.000000e+00
 9.322034e-01 1.000000e+00 0.000000e+00
 9.152542e-01 1.000000e+00 0.000000e+00
 8.983051e-01 1.000000e+00 0.000000e+00
 8.813559e-01 1.000000e+00 0.000000e+00
 8.644068e-01 1.000000e+00 0.000000e+00
 8.474576e-01 1.000000e+00 0.000000e+00
 8.305085e-01 1.000000e+00 0.000000e+00
 8.135593e-01 1.000000e+00 0.000000e+00
 7.966102e-01 1.000000e+00 0.000000e+00
 7.796610e-01 1.000000e+00 0.000000e+00
 7.627119e-01 1.000000e+00 0.000000e+00
 7.457627e-01 1.000000e+00 0.000000e+00
 7.288136e-01 1.000000e+00 0.000000e+00
 7.118644e-01 1.000000e+00 0.000000e+00
 6.949153e-01 1.000000e+00 0.000000e+00
 6.779661e-01 1.000000e+00 0.000000e+00
 6.610169e-01 1.000000e+00 0.000000e+00
 6.440678e-01 1.000000e+00 0.000000e+00
 6.271186e-01 1.000000e+00 0.000000e+00
 6.101695e-01 1.000000e+00 0.000000e+00
 5.932203e-01 1.000000e+00 0.000000e+00
 5.762712e-01 1.000000e+00 0.000000e+00
 5.593220e-01 1.000000e+00 0.000000e+00
 5.423729e-01 1.000000e+00 0.000000e+00
 5.254237e-01 1.000000e+00 0.000000e+00
 5.084746e-01 1.000000e+00 0.000000e+00
 4.915254e-01 1.000000e+00 0.000000e+00
 4.745763e-01 1.000000e+00 0.000000e+00
 4.576271e-01 1.000000e+00 0.000000e+00
 4.406780e-01 1.000000e+00 0.000000e+00
 4.237288e-01 1.000000e+00 0.000000e+00
 4.067797e-01 1.000000e+00 0.000000e+00
 3.898305e-01 1.000000e+00 0.000000e+00
 3.728814e-01 1.000000e+00 0.000000e+00
 3.559322e-01 1.000000e+00 0.000000e+00
 3.389831e-01 1.000000e+00 0.000000e+00
 3.220339e-01 1.000000e+00 0.000000e+00
 3.050847e-01 1.000000e+00 0.000000e+00
 2.881356e-01 1.000000e+00 0.000000e+00
 2.711864e-01 1.000000e+00 0.000000e+00
 2.542373e-01 1.000000e+00 0.000000e+00
 2.372881e-01 1.000000e+00 0.000000e+00
 2.203390e-01 1.000000e+00 0.000000e+00
 2.033898e-01 1.000000e+00 0.000000e+00
 1.864407e-01 1.000000e+00 0.000000e+00
 1.694915e-01 1.000000e+00 0.000000e+00
 1.525424e-01 1.000000e+00 0.000000e+00
 1.355932e-01 1.000000e+00 0.000000e+00
 1.186441e-01 1.000000e+00 0.000000e+00
 1.016949e-01 1.000000e+00 0.000000e+00
 8.474576e-02 1.000000e+00 0.000000e+00
 6.779661e-02 1.000000e+00 0.000000e+00
 5.084746e-02 1.000000e+00 0.000000e+00
 3.389831e-02 1.000000e+00 0.000000e+00
 1.694915e-02 1.000000e+00 0.000000e+00
 0.000000e+00 9.830508e-01 0.000000e+00
 0.000000e+00 9.661017e-01 0.000000e+00
 0.000000e+00 9.491525e-01 0.000000e+00
 0.000000e+00 9.322034e-01 0.000000e+00
 0.000000e+00 9.152542e-01 0.000000e+00
 0.000000e+00 8.983051e-01 0.000000e+00
 0.000000e+00 8.813559e-01 0.000000e+00
 0.000000e+00 8.644068e-01 0.000000e+00
 0.000000e+00 8.474576e-01 0.000000e+00
 0.000000e+00 8.305085e-01 0.000000e+00
 0.000000e+00 8.135593e-01 0.000000e+00
 0.000000e+00 7.966102e-01 0.000000e+00
 0.000000e+00 7.796610e-01 0.000000e+00
 0.000000e+00 7.627119e-01 0.000000e+00
 0.000000e+00 7.457627e-01 0.000000e+00
 0.000000e+00 7.288136e-01 0.000000e+00
 0.000000e+00 7.118644e-01 0.000000e+00
 0.000000e+00 6.949153e-01 0.000000e+00
 0.000000e+00 6.779661e-01 0.000000e+00
 0.000000e+00 6.610169e-01 0.000000e+00
 0.000000e+00 6.440678e-01 0.000000e+00
 0.000000e+00 6.271186e-01 0.000000e+00
 0.000000e+00 6.101695e-01 0.000000e+00
 0.000000e+00 5.932203e-01 0.000000e+00
 0.000000e+00 5.762712e-01 0.000000e+00
 0.000000e+00 5.593220e-01 0.000000e+00
 0.000000e+00 5.423729e-01 0.000000e+00
 0.000000e+00 5.254237e-01 0.000000e+00
 0.000000e+00 5.084746e-01 0.000000e+00
 0.000000e+00 4.915254e-01 0.000000e+00
 0.000000e+00 4.745763e-01 0.000000e+00
 0.000000e+00 4.576271e-01 0.000000e+00
 0.000000e+00 4.406780e-01 0.000000e+00
 0.000000e+00 4.237288e-01 0.000000e+00
 0.000000e+00 4.067797e-01 0.000000e+00
 0.000000e+00 3.898305e-01 0.000000e+00
 0.000000e+00 3.728814e-01 0.000000e+00
 0.000000e+00 3.559322e-01 0.000000e+00
 0.000000e+00 3.389831e-01 0.000000e+00
 0.000000e+00 3.220339e-01 0.000000e+00
 0.000000e+00 3.050847e-01 0.000000e+00
 0.000000e+00 2.881356e-01 0.000000e+00
 0.000000e+00 2.711864e-01 0.000000e+00
 0.000000e+00 2.542373e-01 0.000000e+00
 0.000000e+00 2.372881e-01 0.000000e+00
 0.000000e+00 2.203390e-01 0.000000e+00
 0.000000e+00 2.033898e-01 0.000000e+00
 0.000000e+00 1.864407e-01 0.000000e+00
 0.000000e+00 1.694915e-01 0.000000e+00
 0.000000e+00 1.525424e-01 0.000000e+00
 0.000000e+00 1.355932e-01 0.000000e+00
 0.000000e+00 1.186441e-01 0.000000e+00
 0.000000e+00 1.016949e-01 0.000000e+00
 0.000000e+00 8.474576e-02 0.000000e+00
 0.000000e+00 6.779661e-02 0.000000e+00
 0.000000e+00 5.084746e-02 0.000000e+00
 0.000000e+00 3.389831e-02 0.000000e+00
 0.000000e+00 1.694915e-02 0.000000e+00
 5.005028e-01 4.998391e-01 0.000000e+00
 7.071661e-01 2.918712e-01 0.000000e+00
 7.058461e-01 7.075282e-01 0.000000e+00
 2.933884e-01 7.073367e-01 0.000000e+00
 2.938885e-01 2.941144e-01 0.000000e+00
 4.999703e-01 7.791089e-01 0.000000e+00
 5.001569e-01 2.194803e-01 0.000000e+00
 2.181991e-01 4.983680e-01 0.000000e+00
[...]
<PointData Scalars="press" Vectors="vel">
<DataArray Name="press" type="Float64" NumberOfComponents="1" format="ascii">
 2.542162e+06
 2.442760e+06
 -2.454564e+06
 -2.683127e+06
 2.548022e+06
 2.536235e+06
 2.541883e+06
 2.530964e+06
 2.534347e+06
 2.533144e+06
 2.524288e+06
 2.520906e+06
 2.517580e+06
 2.515525e+06
 2.510037e+06
 2.506217e+06
 2.501225e+06
 2.498016e+06
 2.486761e+06
 2.490528e+06
 2.480185e+06
 2.472136e+06
 2.466943e+06
 2.453952e+06
 2.437446e+06
 2.417354e+06
 2.393118e+06
 2.394053e+06
 2.410250e+06
 2.425566e+06
 2.439927e+06
 2.454235e+06
 2.465343e+06
 2.476742e+06
 2.486351e+06
 2.498860e+06
 2.498553e+06
 2.507992e+06
 2.516067e+06
 2.515295e+06
 2.517987e+06
 2.517191e+06
 2.517103e+06
 2.513657e+06
 2.511573e+06
 2.510849e+06
 2.510029e+06
 2.508761e+06
 2.507234e+06
 2.499151e+06
 2.503201e+06
 2.502116e+06
 2.502148e+06
 2.498515e+06
 2.497813e+06
 2.497478e+06
 2.503271e+06
 2.502893e+06
 2.496458e+06
 2.497252e+06
 2.477088e+06
 2.459946e+06
 2.420845e+06
 2.363365e+06
 2.283556e+06
 2.198066e+06
 2.110234e+06
 2.021314e+06
 1.932044e+06
 1.843303e+06
 1.754924e+06
 1.667516e+06
 1.580602e+06
 1.494911e+06
 1.409928e+06
 1.325513e+06
 1.241013e+06
 1.156876e+06
 1.072452e+06
 9.881176e+05
 9.034102e+05
 8.184620e+05
 7.333362e+05
 6.477593e+05
 5.621763e+05
 4.760401e+05
 3.899400e+05
 3.033412e+05
 2.168217e+05
 1.299245e+05
 4.295040e+04
 -4.394109e+04
 -1.310991e+05
 -2.180926e+05
 -3.051310e+05
 -3.921162e+05
 -4.792423e+05
 -5.661812e+05
 -6.529612e+05
 -7.401910e+05
 -8.268686e+05
 -9.137448e+05
 -1.000347e+06
 -1.086856e+06
 -1.173263e+06
 -1.259495e+06
 -1.345399e+06
 -1.431227e+06
 -1.516700e+06
 -1.601778e+06
 -1.686552e+06
 -1.770235e+06
 -1.852983e+06
 -1.933859e+06
 -2.012489e+06
 -2.088578e+06
 -2.161793e+06
 -2.231203e+06
 -2.300217e+06
 -2.361207e+06
 -2.449167e+06
 -2.463721e+06
 -2.460669e+06
 -2.475957e+06
 -2.476284e+06
 -2.480733e+06
 -2.493396e+06
 -2.500203e+06
 -2.505724e+06
 -2.509263e+06
 -2.514870e+06
 -2.518670e+06
 -2.526620e+06
 -2.520287e+06
 -2.521051e+06
 -2.523325e+06
 -2.526681e+06
 -2.532166e+06
 -2.536267e+06
 -2.539127e+06
 -2.544537e+06
 -2.547264e+06
 -2.551865e+06
 -2.553770e+06
 -2.556246e+06
 -2.558005e+06
 -2.560573e+06
 -2.560507e+06
 -2.565733e+06
 -2.568453e+06
 -2.570652e+06
 -2.573850e+06
 -2.574260e+06
 -2.569537e+06
 -2.566169e+06
 -2.567741e+06
 -2.559548e+06
 -2.557340e+06
 -2.557760e+06
 -2.555479e+06
 -2.558571e+06
 -2.556793e+06
 -2.552122e+06
 -2.560238e+06
 -2.553641e+06
 -2.554913e+06
 -2.554649e+06
 -2.556114e+06
 -2.556552e+06
 -2.561538e+06
 -2.565500e+06
 -2.571021e+06
 -2.573138e+06
 -2.584395e+06
 -2.602343e+06
 -2.613581e+06
 -2.641989e+06
 -2.665258e+06
 -2.533641e+06
 -2.413968e+06
 -2.320719e+06
 -2.233481e+06
 -2.150501e+06
 -2.068571e+06
 -1.983099e+06
 -1.892430e+06
 -1.798293e+06
 -1.699760e+06
 -1.601888e+06
 -1.505921e+06
 -1.412375e+06
 -1.321685e+06
 -1.233830e+06
 -1.147649e+06
 -1.063564e+06
 -9.803490e+05
 -8.978145e+05
 -8.148080e+05
 -7.302229e+05
 -6.434301e+05
 -5.532422e+05
 -4.603469e+05
 -3.664431e+05
 -2.737553e+05
 -1.848620e+05
 -9.946865e+04
 -1.492756e+04
 6.961958e+04
 1.544365e+05
 2.394790e+05
 3.248136e+05
 4.102761e+05
 4.956904e+05
 5.810363e+05
 6.661722e+05
 7.508551e+05
 8.353384e+05
 9.193542e+05
 1.003144e+06
 1.086701e+06
 1.170088e+06
 1.253484e+06
 1.336884e+06
 1.420364e+06
 1.504035e+06
 1.587941e+06
 1.672121e+06
 1.756815e+06
 1.842074e+06
 1.928209e+06
 2.015547e+06
 2.104260e+06
 2.194684e+06
 2.287631e+06
 2.380922e+06
 2.480032e+06
 7.876140e+03
 1.055567e+06
 -1.064352e+06
 -1.068603e+06
 1.053393e+06
 -1.412727e+06
 1.417160e+06
 -9.777422e+03
 6.656183e+03
 1.663536e+06
 -1.680902e+06
 1.653593e+06
 -1.665923e+06
 7.082747e+05
 -3.561643e+05
 -3.228274e+05
 7.469471e+05
 -1.747666e+06
 7.239832e+05
 -7.044609e+05
 -1.760170e+06
 -7.201647e+05
 1.753622e+06
 1.734059e+06
 4.120165e+05
 -7.081299e+05
 3.167209e+05
 9.975715e+05
 -1.004937e+06
 -1.965808e+06
 1.845573e+05
 1.956892e+06
 -1.873503e+05
 -1.128515e+06
 5.574519e+05
 1.973497e+06
 -1.228141e+06
 1.212583e+06
 -1.990292e+06
 -1.984565e+06
 -1.221322e+06
 1.979540e+06
 1.224334e+06
 -5.352039e+05
 -5.255462e+05
 1.229863e+06
 4.835940e+05
 -2.032093e+06
 2.014311e+06
 2.017634e+06
 -2.061378e+06
 5.985233e+05
 2.023792e+06
 -2.040823e+06
 -3.018833e+05
 3.156745e+05
 1.495296e+06
 1.220934e+06
 -1.502327e+06
 -1.515224e+06
 1.127174e+06
 -1.135876e+06
 1.528465e+06
 -1.145129e+06
 7.046089e+04
 -3.865783e+05
 2.663939e+05
 2.109212e+04
 9.765600e+05
 7.332427e+05
 1.331095e+06
 -7.671903e+05
 -1.322990e+06
 -2.133250e+06
 -2.119361e+06
 1.602620e+06
 1.613062e+06
 2.104281e+06
 2.109125e+06
 -1.618202e+06
 -1.649217e+06
 -7.545735e+05
 -6.750351e+04
 -5.537888e+05
 2.133279e+06
 -2.115945e+06
 5.782926e+05
 -2.990126e+05
 2.139255e+06
 -8.309200e+05
 -2.128802e+06
 8.409705e+05
 -1.363185e+06
 -1.505566e+06
 -1.641337e+06
 -3.446130e+05
 3.377193e+05
 1.632254e+06
 1.532893e+06
 3.804553e+05
 -3.602445e+05
 7.823652e+05
 8.714095e+05
 -1.063107e+06
 1.403833e+06
 -9.250534e+05
 2.159764e+06
 -2.181160e+06
 9.243514e+05
 -1.015303e+05
 2.577633e+05
 -5.832731e+05
 -8.631960e+05
 -7.347194e+05
 -1.308094e+06
 -2.134748e+05
 -8.753202e+05
 6.628460e+05
 2.194989e+06
 -2.199294e+06
 -1.021689e+04
 2.980323e+04
 -5.831047e+05
 -3.248324e+04
 2.186336e+04
 1.722040e+06
 -1.725528e+06
 1.251806e+06
 -1.753807e+06
 1.726381e+06
 1.042031e+06
 -1.741462e+06
 -1.385812e+06
 1.716568e+06
 -1.372968e+06
 1.354825e+06
 8.996326e+05
 1.197647e+06
 1.025172e+06
 -2.220188e+06
 5.576993e+05
 -5.469601e+05
 2.223751e+06
 4.974317e+05
 8.936825e+03
 -5.442040e+05
 1.957917e+05
 2.793529e+05
 2.238264e+06
 -2.213278e+06
 -2.282919e+06
 2.237872e+06
 -1.187906e+06
 2.042406e+05
 3.698234e+05
 3.004558e+05
 -2.813687e+05
 2.231646e+06
 -2.233457e+06
 1.738900e+06
 -1.740353e+06
 1.375763e+06
 -1.756084e+06
 2.233502e+06
 -1.363565e+06
 -2.231976e+06
 -2.236976e+06
 -1.346137e+06
 1.359766e+06
 2.234149e+06
 1.342277e+06
 -1.808741e+06
 1.001970e+06
 -1.011235e+06
 1.788800e+06
 -9.930823e+05
 -5.171450e+05
 -1.042364e+06
 1.817137e+06
 -8.784446e+05
 7.775764e+05
 -2.272982e+05
 4.613391e+05
 -1.063926e+06
 -2.238335e+06
 -2.266264e+06
 -1.867861e+06
 1.842879e+06
 -1.904349e+06
 1.841248e+06
 2.248360e+06
 2.250805e+06
 7.066977e+05
 -5.816886e+05
 5.496671e+05
 9.627587e+05
 1.498833e+06
 -4.564894e+05
 -7.767326e+05
 -1.322264e+06
 1.224959e+06
 -1.237955e+06
 1.277774e+06
 -1.239973e+06
 -6.138254e+05
 1.403958e+05
 1.044166e+06
 1.078447e+06
 -2.253351e+06
 2.262920e+06
 -1.064541e+06
 -1.907859e+06
 1.894661e+06
 1.901295e+06
 -1.927690e+06
 -7.837920e+05
 5.814776e+05
 1.469761e+06
 -1.479582e+06
 1.481144e+06
 -1.494039e+06
 -2.452291e+05
 7.896603e+05
 7.943715e+05
 -1.539822e+06
 1.949950e+06
 -1.955684e+06
 -5.569498e+05
 5.695543e+05
 1.546834e+06
 -3.399476e+05
 3.941793e+05
 1.312407e+06
 -1.847318e+05
 -1.545184e+06
 6.982589e+05
 4.804598e+05
 8.785349e+05
 -1.828672e+05
 -8.794257e+05
 -8.820248e+05
 6.325469e+04
 -2.266760e+06
 2.279882e+06
 -2.444763e+05
 2.713657e+05
 -1.542056e+06
 1.529832e+06
 -1.565089e+06
 1.872890e+06
 -1.971903e+06
 -6.547954e+04
 1.960518e+06
 7.277224e+04
 -1.681504e+06
 -7.916528e+04
 3.588524e+05
 -1.942346e+06
 9.046854e+05
 1.393469e+06
 -4.930009e+05
 9.268515e+05
 -7.559510e+05
 1.988645e+06
 -7.502172e+04
 1.697231e+06
 -1.330503e+06
 -2.291562e+06
 1.130476e+06
 1.229434e+06
 -1.119711e+06
 2.280344e+06
 -1.535734e+06
 2.173332e+05
 -3.468176e+05
 1.538131e+06
 1.578148e+06
 2.462118e+05
 7.248920e+05
 -2.294658e+06
 -7.184438e+05
 2.288132e+06
 -3.126059e+05
 5.999153e+05
 -1.898429e+06
 -1.910481e+06
 1.889119e+06
 1.275492e+06
 -1.211702e+06
 1.058048e+06
 1.802455e+06
 1.792472e+06
 -1.827314e+06
 -5.426117e+05
 -1.802584e+06
 -7.970536e+05
 1.955875e+06
 -1.888991e+06
 -8.893537e+05
 -1.595105e+06
 -1.801241e+05
 1.198092e+06
 1.018225e+06
 7.629347e+05
 -9.093606e+05
 2.319077e+06
 -2.325547e+06
 1.535988e+06
 1.546803e+06
 -2.302499e+06
 2.327078e+06
 -1.573915e+06
 -1.566264e+06
 1.409170e+05
 3.677785e+04
 -1.316823e+06
 2.013912e+05
 1.031183e+06
 -4.042341e+05
 -1.391275e+05
 7.454994e+05
 -7.358785e+05
 -2.302303e+06
 2.326669e+06
 1.428630e+06
 -8.269535e+05
 8.379216e+05
 2.493665e+05
 -2.436582e+05
 1.825049e+06
 -1.842452e+06
 6.189334e+05
 -5.308542e+05
 4.892545e+05
 -2.306665e+06
 -4.753135e+05
 2.301724e+06
 -1.727642e+05
 1.802082e+03
 -1.761992e+06
 1.746288e+06
 -5.068083e+05
 5.146754e+05
 -1.391495e+06
 1.230543e+06
 -1.414707e+06
 -1.450932e+06
 1.403613e+06
 -4.038989e+05
 8.302871e+05
 -2.043600e+06
 2.033101e+06
 -2.050900e+06
 2.090926e+05
 2.035830e+06
 -5.573820e+05
 2.340855e+06
 -1.484527e+06
 2.345775e+06
 -2.039019e+06
 -2.003580e+06
 -1.930662e+06
 -2.100133e+06
 -2.297815e+06
 -2.352460e+06
 -1.016196e+06
 1.992003e+06
 2.052476e+06
 -9.471129e+05
 2.042653e+06
 -1.241586e+06
 -9.354207e+05
 6.909138e+05
 2.001378e+06
 1.528450e+06
 -1.311807e+06
 3.947018e+05
 -9.783533e+05
 9.958064e+05
 8.828349e+05
 -8.872909e+05
 -3.634678e+05
 -8.300869e+05
 -1.484798e+05
 1.474140e+05
 1.547687e+06
 1.929665e+06
 -2.039037e+06
 1.436628e+06
 4.309338e+05
 7.484674e+05
 -2.337059e+05
 -1.173002e+06
 9.519583e+05
 8.561242e+05
 4.986488e+05
 -1.051987e+06
 -1.196059e+06
 -1.688439e+05
 -1.060791e+06
 -5.365066e+05
 5.169877e+05
 7.217288e+05
 -2.075557e+06
 -2.316738e+06
 -1.137449e+05
 2.327646e+06
 1.245342e+05
 1.585853e+06
 -4.074385e+05
 1.135681e+06
 1.069710e+05
 3.728338e+05
 -1.313738e+06
 1.450127e+06
 -1.189028e+06
 -1.175784e+06
 1.786975e+06
 1.164484e+06
 -1.131156e+06
 -1.303364e+06
 1.292712e+06
 -1.708299e+06
 1.784087e+06
 -1.687905e+06
 1.207697e+06
 1.950826e+06
 -2.033615e+06
 1.047009e+06
 6.958286e+04
 1.946627e+05
 1.153524e+06
 -5.682602e+05
 5.890066e+05
 -1.515148e+06
 1.114783e+06
 -6.822228e+05
 5.594824e+05
 -1.564664e+06
 -9.620836e+05
 2.349839e+06
 9.661016e+05
 -2.341546e+06
 8.982247e+05
 -3.529404e+05
 2.367252e+06
 -2.333348e+06
 9.181457e+05
 -9.083829e+05
 -1.480240e+06
 7.525763e+05
 1.078395e+06
 1.581211e+06
 -7.125367e+05
 -2.074792e+06
 2.070876e+06
 -2.094101e+06
 2.079524e+06
 2.129522e+06
 1.483554e+05
 -2.140737e+06
 -1.348984e+05
 -1.063494e+06
 -1.790114e+05
 -7.044726e+05
 1.377186e+06
 8.319384e+05
 -2.181865e+05
 4.299393e+05
 -2.338441e+06
 -4.198019e+05
 2.362003e+06
 2.290443e+05
 -7.197307e+05
 4.337769e+05
 6.333323e+05
 1.721207e+06
 1.715046e+06
 -2.370376e+06
 2.369407e+06
 -1.774170e+06
 -1.714276e+06
 -2.336603e+06
 1.705197e+06
 2.379832e+06
 -1.736169e+06
 -1.738627e+06
 3.228577e+05
 -1.651516e+06
 -9.237910e+05
 2.367806e+06
 1.220725e+06
 -2.332167e+06
 -1.209423e+06
 1.404673e+06
 -1.592804e+06
 -7.117028e+05
 1.737150e+06
 -2.306259e+06
 -2.399644e+06
 2.370339e+06
 2.380290e+06
 2.086917e+05
 -6.708710e+05
 6.707657e+05
 -2.086093e+06
 2.098458e+06
 -8.417816e+05
 2.108998e+06
 -1.134267e+06
 1.182701e+05
 2.362602e+06
 -9.673045e+04
 1.665158e+06
 -2.337388e+06
 -9.405956e+05
 1.882950e+06
 8.774742e+05
 -1.356344e+06
 -1.384300e+06
 1.347656e+06
 -6.655741e+05
 -6.220707e+05
 -2.158232e+06
 6.431615e+05
 1.208502e+06
 -6.134022e+05
 -1.190776e+06
 -2.158219e+06
 2.150509e+06
 1.204058e+06
 1.563003e+05
 -8.429116e+05
 1.851320e+06
 -3.648600e+05
 2.762438e+04
 1.082656e+06
 -3.990084e+05
 4.081588e+05
 1.882254e+06
 -1.904815e+06
 -1.230606e+06
 4.514975e+05
 -6.033754e+05
 7.101038e+05
 6.209544e+05
 -1.179073e+06
 -1.807633e+06
 -6.739388e+05
 5.061984e+05
 -1.379930e+06
 7.550925e+05
 2.135099e+06
 -2.145239e+06
 -1.676700e+05
 1.857612e+05
 5.088803e+04
 -7.767891e+05
 1.380965e+06
 -7.229566e+05
 -2.169319e+06
 -3.782706e+05
 3.918389e+05
 2.182867e+06
 -1.645632e+06
 1.507532e+06
 -1.502718e+06
 3.836862e+05
 1.630846e+06
 -1.536318e+06
 2.135643e+05
 -3.625799e+05
 5.020733e+05
 -1.894545e+06
 1.781279e+06
 -3.683825e+05
 9.297274e+05
 1.627994e+06
 1.571279e+06
 -1.631177e+06
 -1.580832e+06
 1.361296e+06
 1.510704e+06
 -1.651716e+06
 -1.595052e+06
 7.297187e+05
 1.481261e+05
 1.261182e+06
 -2.164174e+06
 2.076277e+06
 -2.362993e+06
 -1.269252e+06
 2.077777e+06
 -2.207967e+06
 -1.211240e+06
 2.369959e+06
 -1.695456e+06
 1.056178e+06
 1.626813e+06
 1.814323e+06
 2.115349e+06
 -1.365106e+06
 -4.622094e+05
 -1.924553e+06
 4.100764e+04
 -5.344165e+04
 1.884180e+06
 -8.824279e+05
 -1.913675e+06
 -1.905573e+06
 1.632920e+06
 1.152891e+06
 -1.843575e+06
 -3.705835e+05
 6.328985e+05
 4.110098e+05
 -4.261727e+05
 1.368948e+06
 -4.548278e+05
 -2.351787e+06
 2.385916e+06
 -5.935349e+05
 6.015016e+05
 -2.006800e+06
 6.489956e+05
 2.175183e+06
 -2.044039e+06
 -7.461285e+04
 2.174989e+06
 -7.169693e+05
 2.142016e+06
 -1.779289e+06
 8.945930e+05
 1.128253e+06
 1.641573e+06
 -1.164745e+05
 1.373423e+06
 -7.471766e+05
 -1.390080e+06
 1.324513e+06
 -1.385504e+06
 -1.603648e+06
 6.442747e+05
 1.245298e+05
 1.353492e+06
 -1.836777e+06
 8.561767e+05
 3.792608e+05
 1.699932e+06
 8.665637e+05
 1.013258e+06
 -1.207106e+06
 1.214303e+06
 1.089949e+06
 1.833172e+06
 -4.075719e+05
 -1.073602e+06
 -1.021263e+06
 -8.542880e+05
 -1.025931e+06
 -5.077093e+05
 -1.402547e+06
 -1.602267e+05
 1.192899e+06
 5.401707e+05
 -6.448731e+05
 3.513895e+05
 -8.946530e+03
 -2.362404e+06
 2.359291e+06
 -2.347686e+06
 -3.247050e+05
 2.379892e+06
 1.403062e+06
 7.215749e+04
 1.415171e+06
 -1.406738e+06
 -2.373018e+06
 -1.430955e+06
 1.375880e+06
 2.392726e+06
 3.693364e+05
 1.131381e+06
 -1.143811e+06
 -1.138762e+06
 2.901617e+05
 -7.216977e+05
 1.756038e+06
 -1.797470e+06
 -1.765254e+06
 1.751111e+06
 2.402221e+06
 -1.189540e+05
 2.399853e+06
 2.197487e+06
 -2.411831e+06
 -2.233636e+06
 -2.336141e+06
 2.197219e+06
 -2.170651e+06
 1.088201e+06
 5.196021e+05
 -2.256852e+05
 -6.828150e+05
 -1.189386e+06
 -1.129535e+05
 -2.153771e+06
 1.259862e+06
 1.396876e+06
 3.039446e+05
 3.819535e+05
 -1.271324e+06
 -5.423141e+05
 -1.286433e+06
 -1.046505e+06
 -9.105917e+05
 3.051780e+04
 -7.919855e+05
 1.372829e+06
 1.516102e+06
 2.158488e+06
 6.237662e+05
 1.645102e+06
 -6.926957e+05
 1.357891e+06
 8.539906e+05
 1.179477e+06
 -1.845439e+05
 1.693247e+06
 -1.276580e+06
 1.792388e+05
 2.108022e+06
 -6.136821e+05
 4.302081e+05
 -6.875630e+05
 7.006402e+05
 1.466089e+06
 7.496725e+05
 2.395510e+06
 -2.394147e+06
 1.475058e+06
 -1.912835e+06
 9.853730e+05
 1.645956e+06
 1.905758e+06
 -1.685362e+06
 3.868202e+04
 -2.347670e+06
 1.899922e+06
 -1.960867e+06
 -1.663824e+06
 2.186526e+06
 2.402996e+06
 -1.498499e+06
 -2.200453e+06
 -2.189430e+06
 -1.089614e+06
 -1.525331e+06
 1.811969e+06
 2.184794e+06
 -2.214320e+04
 1.479776e+06
 -1.440169e+06
 9.130793e+05
 -9.987467e+04
 1.965877e+06
 1.895988e+06
 6.492457e+05
 1.901527e+06
 9.013579e+05
 -9.966664e+05
 -9.902490e+05
 -2.216959e+06
 -2.240670e+06
 2.221830e+06
 1.255497e+06
 -1.666452e+06
 2.214571e+06
 -1.831915e+06
 -1.783130e+06
 2.603691e+05
 4.309443e+05
 -1.304032e+06
 -8.096143e+04
 8.370763e+05
 7.733798e+05
 -6.009305e+05
 2.353495e+06
 1.799482e+06
 -1.828140e+06
 -1.811194e+06
 -2.372275e+06
 1.797206e+06
 6.219082e+05
 1.576131e+06
 -7.546575e+05
 -1.087935e+06
 -1.895649e+06
 -4.259308e+05
 1.063995e+06
 -1.047988e+06
 -3.714279e+05
 -1.900153e+06
 -8.846347e+05
 1.317490e+06
 1.666329e+06
 -2.098320e+06
 -5.908660e+05
 -1.939879e+05
 5.322596e+05
 -1.070980e+06
 -1.549819e+06
 -3.731669e+05
 -3.058652e+05
 -2.607611e+05
 1.615612e+06
 -1.955018e+05
 -4.645214e+05
 2.256729e+05
 6.421845e+05
 9.771500e+05
 -9.613783e+05
 -4.768941e+05
 -1.987251e+06
 -1.993402e+06
 1.973829e+06
 -2.171965e+06
 1.068183e+06
 1.926130e+06
 1.919919e+06
 -1.928657e+06
 -1.951470e+06
 -1.139141e+06
 -5.146603e+05
 7.650767e+05
 6.092760e+05
 -1.460593e+06
 2.044042e+06
 -2.086194e+06
 1.255013e+06
 -5.005721e+05
 2.091688e+06
 4.619168e+05
 -9.704054e+05
 2.780254e+05
 -2.891953e+05
 -1.632845e+06
 -1.897564e+06
 -1.926891e+06
 2.007905e+06
 -2.019907e+06
 5.910288e+04
 -2.170261e+06
 -5.479734e+04
 1.476682e+06
 1.560658e+06
 1.208085e+04
 -4.579337e+05
 1.051932e+06
 2.406271e+06
 -1.543207e+06
 1.522327e+06
 -2.378377e+06
 -1.038800e+06
 -8.162813e+05
 3.471145e+05
 -2.362772e+06
 2.377523e+06
 8.253114e+05
 -5.481296e+05
 1.667687e+06
 1.512168e+06
 -9.228157e+05
 -1.416622e+06
 1.856293e+06
 5.317846e+05
 1.023978e+06
 -8.853948e+05
 2.032696e+06
 -1.720040e+06
 3.489432e+05
 1.665406e+06
 -1.686721e+06
 1.673187e+06
 -1.347887e+06
 -6.659513e+04
 -1.670285e+06
 1.864067e+06
 -1.172699e+06
 1.392978e+06
 1.896318e+06
 -1.837593e+06
 1.146942e+06
 -8.124697e+05
 1.823923e+06
 -1.109117e+05
 1.000421e+06
 1.126903e+05
 -2.190891e+06
 -1.493201e+06
 -9.317778e+05
 -2.156172e+06
 4.317381e+05
 -1.181935e+06
 2.832102e+05
 1.218094e+05
 9.233941e+05
 -1.621943e+06
 9.598582e+05
 -1.773454e+06
 -3.639893e+05
 1.757623e+06
 -1.920120e+05
 3.668306e+05
 -5.994306e+05
 6.101170e+05
 2.239580e+06
 -2.251440e+06
 4.012173e+05
 -2.365873e+05
 1.285895e+06
 -1.188578e+06
 1.753447e+06
 -9.113296e+05
 -1.759340e+06
 1.265438e+06
 -1.776292e+06
 8.517897e+05
 -1.194128e+06
 -9.220926e+04
 -2.991649e+05
 1.241996e+05
 -7.051467e+04
 1.782439e+06
 1.466001e+06
 -1.575927e+06
 1.338325e+05
 -1.498264e+06
 6.174772e+05
 -1.966841e+06
 1.876218e+06
 -2.015643e+05
 2.114177e+05
 9.866885e+05
 1.960457e+06
 7.367808e+05
 1.513308e+06
 1.666794e+06
 2.017862e+06
 1.279918e+06
 -2.000613e+06
 -1.633564e+06
 -4.560179e+05
 1.711387e+06
 2.394308e+06
 -1.052315e+06
 -2.380390e+06
 3.415523e+04
 -1.352791e+06
 8.804698e+05
 -1.268821e+06
 -1.171658e+04
 -1.286462e+06
 -1.850072e+06
 1.255663e+06
 -4.838852e+05
 -9.590312e+05
 3.947835e+03
 9.725958e+05
 -1.452982e+06
 3.417115e+05
 7.904744e+05
 1.338927e+06
 -3.931440e+05
 2.613447e+05
 -2.389757e+06
 2.419044e+06
 -2.839388e+05
 -1.807533e+06
 1.313069e+06
 -2.212685e+06
 -1.415288e+06
 1.063523e+05
 8.953715e+05
 -2.382521e+06
 1.058247e+06
 -1.397711e+06
 -1.057229e+06
 1.387426e+06
 2.391054e+06
 2.222833e+06
 -9.508768e+05
 1.151209e+06
 1.528036e+06
 3.599873e+05
 -1.569676e+06
 -1.542413e+06
 -7.561843e+05
 7.649436e+05
 2.011159e+06
 6.836035e+05
 -2.695889e+05
 -2.015313e+06
 -2.024406e+06
 2.003980e+06
 -6.525859e+05
 1.666108e+06
 -5.447341e+04
 2.095351e+06
 1.288015e+05
 3.904410e+05
 2.093606e+06
 2.258437e+06
 8.524984e+05
 2.749157e+05
 -8.436675e+05
 2.258439e+05
 1.204362e+06
 -1.868101e+06
 9.630769e+05
 -2.062419e+06
 -2.388520e+05
 2.668601e+05
 -5.126379e+05
 1.632827e+06
 -1.232740e+06
 2.227548e+06
 1.543855e+06
 1.017877e+06
 -1.036662e+06
 2.222285e+06
 2.200803e+06
 1.636020e+06
 2.222830e+06
 -2.112154e+06
 -2.140660e+06
 -2.087758e+06
 -1.916329e+06
 -6.682671e+04
 2.077154e+06
 8.149809e+04
 1.163653e+06
 -6.263704e+04
 -1.436336e+06
 1.963475e+06
 1.986431e+06
 4.851578e+05
 1.605803e+06
 -2.233833e+06
 6.995473e+05
 -1.637274e+06
 8.448906e+05
 -8.351759e+05
 2.384326e+06
 2.396980e+05
 2.030605e+06
 1.069730e+06
 -2.383756e+06
 -2.238573e+05
 -2.098328e+05
 -1.946869e+05
 -2.069041e+05
 9.506700e+05
 -1.279668e+06
 -6.446425e+05
 -2.824087e+05
 5.145640e+05
 1.270393e+06
 -1.408605e+06
 -2.089677e+06
 7.611337e+04
 -2.073891e+06
 -9.570318e+05
 9.452774e+05
 2.251775e+05
 -4.078063e+04
 2.001515e+06
 -8.105291e+05
 5.176068e+05
 7.444370e+05
 -2.141070e+06
 -8.071257e+05
 6.791352e+05
 -6.702560e+05
 9.861097e+05
 -1.259048e+06
 -2.221134e+06
 -1.326570e+06
 2.218986e+06
 1.293274e+06
 1.100870e+06
 1.105043e+06
 -1.079470e+06
 -2.137687e+06
 2.127948e+06
 -1.467749e+06
 -1.294906e+06
 1.288116e+06
 1.162279e+06
 2.433523e+06
 6.084675e+05
 -8.203847e+05
 -2.382638e+06
 8.256166e+05
 2.505258e+05
 -5.231900e+05
 1.700860e+06
 -1.408192e+06
 -1.637249e+06
 -1.021660e+06
 -3.433601e+05
 -8.846729e+05
 1.455256e+06
 8.976915e+05
 -1.311936e+06
 7.087826e+05
 -2.138195e+06
 -7.307514e+05
 -3.104871e+05
 -1.463694e+06
 5.902662e+05
 -6.119544e+05
 -2.038214e+06
 1.115707e+06
 -1.673006e+06
 -2.411468e+06
 1.616856e+06
 -2.375354e+06
 2.431499e+06
 1.609362e+06
 2.439750e+06
 -1.632011e+06
 -2.343546e+05
 -1.643068e+06
 1.862294e+06