<?xml version="1.0"?>
<VTKFile type="UnstructuredGrid" version="0.1">
<UnstructuredGrid>
<FieldData>
<DataArray Name="TIME" type="Float64" format="ascii" NumberOfTuples="1">
0.000000e+00
</DataArray>
</FieldData>
<FieldData>
<DataArray Name="CYCLE" type="Int32" format="ascii" NumberOfTuples="1">
0
</DataArray>
</FieldData>
<Piece NumberOfPoints="16" NumberOfCells="1">
<Points>
<DataArray NumberOfComponents="3" type="Float64" format="ascii">
0.000000e+00 0.000000e+00 0.000000e+00
5.000000e-01 0.000000e+00 0.000000e+00
1.000000e+00 0.000000e+00 0.000000e+00
0.000000e+00 2.500000e-01 0.000000e+00
1.000000e+00 2.500000e-01 0.000000e+00
0.000000e+00 5.000000e-01 0.000000e+00
5.000000e-01 5.000000e-01 0.000000e+00
1.000000e+00 5.000000e-01 0.000000e+00
0.000000e+00 5.000000e-01 0.000000e+00
5.000000e-01 5.000000e-01 0.000000e+00
1.000000e+00 5.000000e-01 0.000000e+00
0.000000e+00 7.500000e-01 0.000000e+00
1.000000e+00 7.500000e-01 0.000000e+00
0.000000e+00 1.000000e+00 0.000000e+00
5.000000e-01 1.000000e+00 0.000000e+00
1.000000e+00 1.000000e+00 0.000000e+00
</DataArray>
</Points>
<Cells>
<DataArray Name="connectivity" type="Int32" format="ascii">
7 5
</DataArray>
<DataArray Name="offsets" type="Int32" format="ascii">
2
</DataArray>
<DataArray Name="types" type="UInt8" format="ascii">
3
</DataArray>
</Cells>
<CellData>
<DataArray Name="data" type="Float64" NumberOfComponents="3" format="ascii">
5.000000e-01 1.000000e+00 0.000000e+00
</DataArray>
<DataArray Name="mesh_vars/ContactElements_Color" type="Float64" NumberOfComponents="1" format="ascii">
0.000000e+00
</DataArray>
<DataArray Name="mesh_vars/ContactElements_Id" type="Float64" NumberOfComponents="1" format="ascii">
4.000000e+00
</DataArray>
<DataArray Name="mesh_vars/ContactElements_Owner" type="Float64" NumberOfComponents="1" format="ascii">
0.000000e+00
</DataArray>
<DataArray Name="mesh_vars/ContactElements_Tag" type="Float64" NumberOfComponents="1" format="ascii">
1.000000e+01
</DataArray>
</CellData>
</Piece>
</UnstructuredGrid>
</VTKFile>
