<?xml version="1.0"?>
<VTKFile type="UnstructuredGrid" version="0.1">
<UnstructuredGrid>
<FieldData>
<DataArray Name="TIME" type="Float64" format="ascii" NumberOfTuples="1">
0.000000e+00
</DataArray>
</FieldData>
<FieldData>
<DataArray Name="CYCLE" type="Int32" format="ascii" NumberOfTuples="1">
0
</DataArray>
</FieldData>
<Piece NumberOfPoints="40" NumberOfCells="72">
<Points>
<DataArray NumberOfComponents="3" type="Float64" format="ascii">
0.000000e+00 0.000000e+00 0.000000e+00
5.000000e-01 0.000000e+00 0.000000e+00
1.000000e+00 0.000000e+00 0.000000e+00
0.000000e+00 5.000000e-01 0.000000e+00
1.000000e+00 5.000000e-01 0.000000e+00
0.000000e+00 1.000000e+00 0.000000e+00
5.000000e-01 1.000000e+00 0.000000e+00
1.000000e+00 1.000000e+00 0.000000e+00
0.000000e+00 0.000000e+00 2.500000e-01
1.000000e+00 0.000000e+00 2.500000e-01
0.000000e+00 1.000000e+00 2.500000e-01
1.000000e+00 1.000000e+00 2.500000e-01
0.000000e+00 0.000000e+00 5.000000e-01
5.000000e-01 0.000000e+00 5.000000e-01
1.000000e+00 0.000000e+00 5.000000e-01
0.000000e+00 5.000000e-01 5.000000e-01
1.000000e+00 5.000000e-01 5.000000e-01
0.000000e+00 1.000000e+00 5.000000e-01
5.000000e-01 1.000000e+00 5.000000e-01
1.000000e+00 1.000000e+00 5.000000e-01
0.000000e+00 0.000000e+00 5.000000e-01
5.000000e-01 0.000000e+00 5.000000e-01
1.000000e+00 0.000000e+00 5.000000e-01
0.000000e+00 5.000000e-01 5.000000e-01
1.000000e+00 5.000000e-01 5.000000e-01
0.000000e+00 1.000000e+00 5.000000e-01
5.000000e-01 1.000000e+00 5.000000e-01
1.000000e+00 1.000000e+00 5.000000e-01
0.000000e+00 0.000000e+00 7.500000e-01
1.000000e+00 0.000000e+00 7.500000e-01
0.000000e+00 1.000000e+00 7.500000e-01
1.000000e+00 1.000000e+00 7.500000e-01
0.000000e+00 0.000000e+00 1.000000e+00
5.000000e-01 0.000000e+00 1.000000e+00
1.000000e+00 0.000000e+00 1.000000e+00
0.000000e+00 5.000000e-01 1.000000e+00
1.000000e+00 5.000000e-01 1.000000e+00
0.000000e+00 1.000000e+00 1.000000e+00
5.000000e-01 1.000000e+00 1.000000e+00
1.000000e+00 1.000000e+00 1.000000e+00
</DataArray>
</Points>
<Cells>
<DataArray Name="connectivity" type="Int32" format="ascii">
0 1 8
1 2 9
9 14 13
13 12 8
1 9 13
1 13 8
2 4 9
4 7 11
11 19 16
16 14 9
4 11 16
4 16 9
7 6 11
6 5 10
10 17 18
18 11 19
6 10 18
6 18 11
5 3 10
3 0 8
8 12 15
15 17 10
3 8 15
3 15 10
12 13 15
13 14 16
16 19 18
18 17 15
13 16 18
13 18 15
5 6 3
6 7 4
4 2 1
1 0 3
6 4 1
6 1 3
20 21 28
21 22 29
29 34 33
33 32 28
21 29 33
21 33 28
22 24 29
24 27 31
31 39 36
36 34 29
24 31 36
24 36 29
27 26 31
26 25 30
30 37 38
38 31 39
26 30 38
26 38 31
25 23 30
23 20 28
28 32 35
35 37 30
23 28 35
23 35 30
32 33 35
33 34 36
36 39 38
38 37 35
33 36 38
33 38 35
25 26 23
26 27 24
24 22 21
21 20 23
26 24 21
26 21 23
</DataArray>
<DataArray Name="offsets" type="Int32" format="ascii">
3
6
9
12
15
18
21
24
27
30
33
36
39
42
45
48
51
54
57
60
63
66
69
72
75
78
81
84
87
90
93
96
99
102
105
108
111
114
117
120
123
126
129
132
135
138
141
144
147
150
153
156
159
162
165
168
171
174
177
180
183
186
189
192
195
198
201
204
207
210
213
216
</DataArray>
<DataArray Name="types" type="UInt8" format="ascii">
5
5
5
5
5
5
5
5
5
5
5
5
5
5
5
5
5
5
5
5
5
5
5
5
5
5
5
5
5
5
5
5
5
5
5
5
5
5
5
5
5
5
5
5
5
5
5
5
5
5
5
5
5
5
5
5
5
5
5
5
5
5
5
5
5
5
5
5
5
5
5
5
</DataArray>
</Cells>
<PointData>
<DataArray Name="data" type="Float64" NumberOfComponents="3" format="ascii">
0.000000e+00 0.000000e+00 0.000000e+00
5.000000e-01 1.000000e+00 1.500000e+00
1.000000e+00 2.000000e+00 3.000000e+00
0.000000e+00 0.000000e+00 0.000000e+00
1.000000e+00 2.000000e+00 3.000000e+00
0.000000e+00 0.000000e+00 0.000000e+00
5.000000e-01 1.000000e+00 1.500000e+00
1.000000e+00 2.000000e+00 3.000000e+00
0.000000e+00 0.000000e+00 0.000000e+00
1.000000e+00 2.000000e+00 3.000000e+00
0.000000e+00 0.000000e+00 0.000000e+00
1.000000e+00 2.000000e+00 3.000000e+00
0.000000e+00 0.000000e+00 0.000000e+00
5.000000e-01 1.000000e+00 1.500000e+00
1.000000e+00 2.000000e+00 3.000000e+00
0.000000e+00 0.000000e+00 0.000000e+00
1.000000e+00 2.000000e+00 3.000000e+00
0.000000e+00 0.000000e+00 0.000000e+00
5.000000e-01 1.000000e+00 1.500000e+00
1.000000e+00 2.000000e+00 3.000000e+00
0.000000e+00 0.000000e+00 0.000000e+00
5.000000e-01 1.000000e+00 1.500000e+00
1.000000e+00 2.000000e+00 3.000000e+00
0.000000e+00 0.000000e+00 0.000000e+00
1.000000e+00 2.000000e+00 3.000000e+00
0.000000e+00 0.000000e+00 0.000000e+00
5.000000e-01 1.000000e+00 1.500000e+00
1.000000e+00 2.000000e+00 3.000000e+00
0.000000e+00 0.000000e+00 0.000000e+00
1.000000e+00 2.000000e+00 3.000000e+00
0.000000e+00 0.000000e+00 0.000000e+00
1.000000e+00 2.000000e+00 3.000000e+00
0.000000e+00 0.000000e+00 0.000000e+00
5.000000e-01 1.000000e+00 1.500000e+00
1.000000e+00 2.000000e+00 3.000000e+00
0.000000e+00 0.000000e+00 0.000000e+00
1.000000e+00 2.000000e+00 3.000000e+00
0.000000e+00 0.000000e+00 0.000000e+00
5.000000e-01 1.000000e+00 1.500000e+00
1.000000e+00 2.000000e+00 3.000000e+00
</DataArray>
<DataArray Name="mesh_vars/Nodes_Id" type="Float64" NumberOfComponents="1" format="ascii">
0.000000e+00
1.000000e+00
2.000000e+00
3.000000e+00
5.000000e+00
6.000000e+00
7.000000e+00
8.000000e+00
9.000000e+00
1.100000e+01
1.500000e+01
1.700000e+01
1.800000e+01
1.900000e+01
2.000000e+01
2.100000e+01
2.300000e+01
2.400000e+01
2.500000e+01
2.600000e+01
2.700000e+01
2.800000e+01
2.900000e+01
3.000000e+01
3.200000e+01
3.300000e+01
3.400000e+01
3.500000e+01
3.600000e+01
3.800000e+01
4.200000e+01
4.400000e+01
4.500000e+01
4.600000e+01
4.700000e+01
4.800000e+01
5.000000e+01
5.100000e+01
5.200000e+01
5.300000e+01
</DataArray>
<DataArray Name="mesh_vars/Nodes_Tag" type="Float64" NumberOfComponents="1" format="ascii">
0.000000e+00
0.000000e+00
0.000000e+00
0.000000e+00
0.000000e+00
0.000000e+00
0.000000e+00
0.000000e+00
0.000000e+00
0.000000e+00
0.000000e+00
0.000000e+00
0.000000e+00
0.000000e+00
0.000000e+00
0.000000e+00
0.000000e+00
0.000000e+00
0.000000e+00
0.000000e+00
0.000000e+00
0.000000e+00
0.000000e+00
0.000000e+00
0.000000e+00
0.000000e+00
0.000000e+00
0.000000e+00
0.000000e+00
0.000000e+00
0.000000e+00
0.000000e+00
0.000000e+00
0.000000e+00
0.000000e+00
0.000000e+00
0.000000e+00
0.000000e+00
0.000000e+00
0.000000e+00
</DataArray>
<DataArray Name="mesh_vars/Nodes_gDOF" type="Float64" NumberOfComponents="1" format="ascii">
0.000000e+00
1.000000e+00
2.000000e+00
3.000000e+00
4.000000e+00
5.000000e+00
6.000000e+00
7.000000e+00
8.000000e+00
9.000000e+00
1.000000e+01
1.100000e+01
1.200000e+01
1.300000e+01
1.400000e+01
1.500000e+01
1.600000e+01
1.700000e+01
1.800000e+01
1.900000e+01
2.000000e+01
2.100000e+01
2.200000e+01
2.300000e+01
2.400000e+01
2.500000e+01
2.600000e+01
2.700000e+01
2.800000e+01
2.900000e+01
3.000000e+01
3.100000e+01
3.200000e+01
3.300000e+01
3.400000e+01
3.500000e+01
3.600000e+01
3.700000e+01
3.800000e+01
3.900000e+01
</DataArray>
<DataArray Name="mesh_vars/Nodes_gNI" type="Float64" NumberOfComponents="1" format="ascii">
0.000000e+00
1.000000e+00
2.000000e+00
3.000000e+00
4.000000e+00
5.000000e+00
6.000000e+00
7.000000e+00
8.000000e+00
9.000000e+00
1.000000e+01
1.100000e+01
1.200000e+01
1.300000e+01
1.400000e+01
1.500000e+01
1.600000e+01
1.700000e+01
1.800000e+01
1.900000e+01
2.000000e+01
2.100000e+01
2.200000e+01
2.300000e+01
2.400000e+01
2.500000e+01
2.600000e+01
2.700000e+01
2.800000e+01
2.900000e+01
3.000000e+01
3.100000e+01
3.200000e+01
3.300000e+01
3.400000e+01
3.500000e+01
3.600000e+01
3.700000e+01
3.800000e+01
3.900000e+01
</DataArray>
<DataArray Name="mesh_vars/Nodes_grDfI" type="Float64" NumberOfComponents="1" format="ascii">
0.000000e+00
-1.000000e+00
1.000000e+00
-1.000000e+00
-1.000000e+00
2.000000e+00
-1.000000e+00
3.000000e+00
-1.000000e+00
-1.000000e+00
-1.000000e+00
-1.000000e+00
4.000000e+00
-1.000000e+00
5.000000e+00
-1.000000e+00
-1.000000e+00
6.000000e+00
-1.000000e+00
7.000000e+00
8.000000e+00
-1.000000e+00
9.000000e+00
-1.000000e+00
-1.000000e+00
1.000000e+01
-1.000000e+00
1.100000e+01
-1.000000e+00
-1.000000e+00
-1.000000e+00
-1.000000e+00
1.200000e+01
-1.000000e+00
1.300000e+01
-1.000000e+00
-1.000000e+00
1.400000e+01
-1.000000e+00
1.500000e+01
</DataArray>
<DataArray Name="mesh_vars/Nodes_grNI" type="Float64" NumberOfComponents="1" format="ascii">
0.000000e+00
-1.000000e+00
1.000000e+00
-1.000000e+00
-1.000000e+00
2.000000e+00
-1.000000e+00
3.000000e+00
-1.000000e+00
-1.000000e+00
-1.000000e+00
-1.000000e+00
4.000000e+00
-1.000000e+00
5.000000e+00
-1.000000e+00
-1.000000e+00
6.000000e+00
-1.000000e+00
7.000000e+00
8.000000e+00
-1.000000e+00
9.000000e+00
-1.000000e+00
-1.000000e+00
1.000000e+01
-1.000000e+00
1.100000e+01
-1.000000e+00
-1.000000e+00
-1.000000e+00
-1.000000e+00
1.200000e+01
-1.000000e+00
1.300000e+01
-1.000000e+00
-1.000000e+00
1.400000e+01
-1.000000e+00
1.500000e+01
</DataArray>
</PointData>
<CellData>
<DataArray Name="mesh_vars/Elements_Color" type="Float64" NumberOfComponents="1" format="ascii">
0.000000e+00
0.000000e+00
0.000000e+00
0.000000e+00
0.000000e+00
0.000000e+00
0.000000e+00
0.000000e+00
0.000000e+00
0.000000e+00
0.000000e+00
0.000000e+00
0.000000e+00
0.000000e+00
0.000000e+00
0.000000e+00
0.000000e+00
0.000000e+00
0.000000e+00
0.000000e+00
0.000000e+00
0.000000e+00
0.000000e+00
0.000000e+00
0.000000e+00
0.000000e+00
0.000000e+00
0.000000e+00
0.000000e+00
0.000000e+00
0.000000e+00
0.000000e+00
0.000000e+00
0.000000e+00
0.000000e+00
0.000000e+00
0.000000e+00
0.000000e+00
0.000000e+00
0.000000e+00
0.000000e+00
0.000000e+00
0.000000e+00
0.000000e+00
0.000000e+00
0.000000e+00
0.000000e+00
0.000000e+00
0.000000e+00
0.000000e+00
0.000000e+00
0.000000e+00
0.000000e+00
0.000000e+00
0.000000e+00
0.000000e+00
0.000000e+00
0.000000e+00
0.000000e+00
0.000000e+00
0.000000e+00
0.000000e+00
0.000000e+00
0.000000e+00
0.000000e+00
0.000000e+00
0.000000e+00
0.000000e+00
0.000000e+00
0.000000e+00
0.000000e+00
0.000000e+00
</DataArray>
<DataArray Name="mesh_vars/Elements_Id" type="Float64" NumberOfComponents="1" format="ascii">
0.000000e+00
0.000000e+00
0.000000e+00
0.000000e+00
0.000000e+00
0.000000e+00
0.000000e+00
0.000000e+00
0.000000e+00
0.000000e+00
0.000000e+00
0.000000e+00
0.000000e+00
0.000000e+00
0.000000e+00
0.000000e+00
0.000000e+00
0.000000e+00
0.000000e+00
0.000000e+00
0.000000e+00
0.000000e+00
0.000000e+00
0.000000e+00
0.000000e+00
0.000000e+00
0.000000e+00
0.000000e+00
0.000000e+00
0.000000e+00
0.000000e+00
0.000000e+00
0.000000e+00
0.000000e+00
0.000000e+00
0.000000e+00
7.000000e+00
7.000000e+00
7.000000e+00
7.000000e+00
7.000000e+00
7.000000e+00
7.000000e+00
7.000000e+00
7.000000e+00
7.000000e+00
7.000000e+00
7.000000e+00
7.000000e+00
7.000000e+00
7.000000e+00
7.000000e+00
7.000000e+00
7.000000e+00
7.000000e+00
7.000000e+00
7.000000e+00
7.000000e+00
7.000000e+00
7.000000e+00
7.000000e+00
7.000000e+00
7.000000e+00
7.000000e+00
7.000000e+00
7.000000e+00
7.000000e+00
7.000000e+00
7.000000e+00
7.000000e+00
7.000000e+00
7.000000e+00
</DataArray>
<DataArray Name="mesh_vars/Elements_Owner" type="Float64" NumberOfComponents="1" format="ascii">
0.000000e+00
0.000000e+00
0.000000e+00
0.000000e+00
0.000000e+00
0.000000e+00
0.000000e+00
0.000000e+00
0.000000e+00
0.000000e+00
0.000000e+00
0.000000e+00
0.000000e+00
0.000000e+00
0.000000e+00
0.000000e+00
0.000000e+00
0.000000e+00
0.000000e+00
0.000000e+00
0.000000e+00
0.000000e+00
0.000000e+00
0.000000e+00
0.000000e+00
0.000000e+00
0.000000e+00
0.000000e+00
0.000000e+00
0.000000e+00
0.000000e+00
0.000000e+00
0.000000e+00
0.000000e+00
0.000000e+00
0.000000e+00
0.000000e+00
0.000000e+00
0.000000e+00
0.000000e+00
0.000000e+00
0.000000e+00
0.000000e+00
0.000000e+00
0.000000e+00
0.000000e+00
0.000000e+00
0.000000e+00
0.000000e+00
0.000000e+00
0.000000e+00
0.000000e+00
0.000000e+00
0.000000e+00
0.000000e+00
0.000000e+00
0.000000e+00
0.000000e+00
0.000000e+00
0.000000e+00
0.000000e+00
0.000000e+00
0.000000e+00
0.000000e+00
0.000000e+00
0.000000e+00
0.000000e+00
0.000000e+00
0.000000e+00
0.000000e+00
0.000000e+00
0.000000e+00
</DataArray>
<DataArray Name="mesh_vars/Elements_Tag" type="Float64" NumberOfComponents="1" format="ascii">
0.000000e+00
0.000000e+00
0.000000e+00
0.000000e+00
0.000000e+00
0.000000e+00
0.000000e+00
0.000000e+00
0.000000e+00
0.000000e+00
0.000000e+00
0.000000e+00
0.000000e+00
0.000000e+00
0.000000e+00
0.000000e+00
0.000000e+00
0.000000e+00
0.000000e+00
0.000000e+00
0.000000e+00
0.000000e+00
0.000000e+00
0.000000e+00
0.000000e+00
0.000000e+00
0.000000e+00
0.000000e+00
0.000000e+00
0.000000e+00
0.000000e+00
0.000000e+00
0.000000e+00
0.000000e+00
0.000000e+00
0.000000e+00
0.000000e+00
0.000000e+00
0.000000e+00
0.000000e+00
0.000000e+00
0.000000e+00
0.000000e+00
0.000000e+00
0.000000e+00
0.000000e+00
0.000000e+00
0.000000e+00
0.000000e+00
0.000000e+00
0.000000e+00
0.000000e+00
0.000000e+00
0.000000e+00
0.000000e+00
0.000000e+00
0.000000e+00
0.000000e+00
0.000000e+00
0.000000e+00
0.000000e+00
0.000000e+00
0.000000e+00
0.000000e+00
0.000000e+00
0.000000e+00
0.000000e+00
0.000000e+00
0.000000e+00
0.000000e+00
0.000000e+00
0.000000e+00
</DataArray>
</CellData>
</Piece>
</UnstructuredGrid>
</VTKFile>
