<?xml version="1.0"?>
<VTKFile type="UnstructuredGrid" version="0.1">
<UnstructuredGrid>
<FieldData>
<DataArray Name="TIME" type="Float64" format="ascii" NumberOfTuples="1">
0.000000e+00
</DataArray>
</FieldData>
<FieldData>
<DataArray Name="CYCLE" type="Int32" format="ascii" NumberOfTuples="1">
0
</DataArray>
</FieldData>
<Piece NumberOfPoints="81" NumberOfCells="192">
<Points>
<DataArray NumberOfComponents="3" type="Float64" format="ascii">
1.000000e+00 5.000000e-01 -0.000000e+00
1.000000e+00 5.000000e-01 1.000000e+00
1.000000e+00 1.000000e+00 5.000000e-01
1.000000e+00 5.000000e-01 5.000000e-01
1.000000e+00 7.500000e-01 7.500000e-01
1.000000e+00 7.500000e-01 2.500000e-01
1.000000e+00 0.000000e+00 5.000000e-01
1.000000e+00 2.500000e-01 2.500000e-01
1.000000e+00 2.500000e-01 7.500000e-01
1.000000e+00 0.000000e+00 1.000000e+00
1.000000e+00 0.000000e+00 7.500000e-01
1.000000e+00 2.500000e-01 1.000000e+00
1.000000e+00 1.000000e+00 -0.000000e+00
1.000000e+00 1.000000e+00 2.500000e-01
1.000000e+00 7.500000e-01 -0.000000e+00
1.000000e+00 0.000000e+00 -0.000000e+00
1.000000e+00 2.500000e-01 -0.000000e+00
1.000000e+00 0.000000e+00 2.500000e-01
1.000000e+00 1.000000e+00 1.000000e+00
1.000000e+00 7.500000e-01 1.000000e+00
1.000000e+00 1.000000e+00 7.500000e-01
5.000000e-01 0.000000e+00 1.000000e+00
0.000000e+00 5.000000e-01 1.000000e+00
5.000000e-01 1.000000e+00 1.000000e+00
2.500000e-01 2.500000e-01 1.000000e+00
2.500000e-01 7.500000e-01 1.000000e+00
5.000000e-01 5.000000e-01 1.000000e+00
7.500000e-01 7.500000e-01 1.000000e+00
7.500000e-01 2.500000e-01 1.000000e+00
0.000000e+00 1.000000e+00 1.000000e+00
0.000000e+00 7.500000e-01 1.000000e+00
2.500000e-01 1.000000e+00 1.000000e+00
0.000000e+00 0.000000e+00 1.000000e+00
2.500000e-01 0.000000e+00 1.000000e+00
0.000000e+00 2.500000e-01 1.000000e+00
7.500000e-01 1.000000e+00 1.000000e+00
7.500000e-01 0.000000e+00 1.000000e+00
5.000000e-01 1.000000e+00 -0.000000e+00
0.000000e+00 1.000000e+00 5.000000e-01
5.000000e-01 1.000000e+00 5.000000e-01
2.500000e-01 1.000000e+00 2.500000e-01
2.500000e-01 1.000000e+00 7.500000e-01
7.500000e-01 1.000000e+00 7.500000e-01
7.500000e-01 1.000000e+00 2.500000e-01
7.500000e-01 1.000000e+00 -0.000000e+00
0.000000e+00 1.000000e+00 7.500000e-01
0.000000e+00 1.000000e+00 -0.000000e+00
2.500000e-01 1.000000e+00 -0.000000e+00
0.000000e+00 1.000000e+00 2.500000e-01
0.000000e+00 5.000000e-01 -0.000000e+00
0.000000e+00 5.000000e-01 5.000000e-01
0.000000e+00 7.500000e-01 2.500000e-01
0.000000e+00 7.500000e-01 7.500000e-01
0.000000e+00 0.000000e+00 5.000000e-01
0.000000e+00 2.500000e-01 7.500000e-01
0.000000e+00 2.500000e-01 2.500000e-01
0.000000e+00 0.000000e+00 -0.000000e+00
0.000000e+00 0.000000e+00 2.500000e-01
0.000000e+00 2.500000e-01 -0.000000e+00
0.000000e+00 0.000000e+00 7.500000e-01
0.000000e+00 7.500000e-01 -0.000000e+00
5.000000e-01 0.000000e+00 -0.000000e+00
5.000000e-01 0.000000e+00 5.000000e-01
2.500000e-01 0.000000e+00 2.500000e-01
2.500000e-01 0.000000e+00 7.500000e-01
7.500000e-01 0.000000e+00 7.500000e-01
7.500000e-01 0.000000e+00 2.500000e-01
7.500000e-01 0.000000e+00 -0.000000e+00
2.500000e-01 0.000000e+00 -0.000000e+00
5.000000e-01 5.000000e-01 -0.000000e+00
2.500000e-01 7.500000e-01 -0.000000e+00
2.500000e-01 2.500000e-01 -0.000000e+00
7.500000e-01 2.500000e-01 -0.000000e+00
7.500000e-01 7.500000e-01 -0.000000e+00
2.500000e-01 2.500000e-01 5.000000e-01
2.500000e-01 5.000000e-01 7.500000e-01
2.500000e-01 5.000000e-01 2.500000e-01
5.000000e-01 5.000000e-01 5.000000e-01
7.500000e-01 5.000000e-01 7.500000e-01
7.500000e-01 5.000000e-01 2.500000e-01
7.500000e-01 7.500000e-01 5.000000e-01
</DataArray>
</Points>
<Cells>
<DataArray Name="connectivity" type="Int32" format="ascii">
72 16 0 7
72 67 16 17
67 15 16 17
66 17 7 6
61 67 72 66
17 66 67 72
72 7 66 17
72 16 7 17
13 44 12 14
13 43 44 73
43 37 44 73
5 73 14 0
2 43 13 5
73 5 43 13
13 14 5 73
13 44 14 73
66 72 61 69
66 7 72 73
7 0 72 73
79 73 69 37
6 7 66 79
73 79 7 66
66 69 79 73
66 72 69 73
73 7 0 3
73 79 7 8
79 6 7 8
80 8 3 1
37 79 73 80
8 80 79 73
73 3 80 8
73 7 3 8
73 43 37 80
73 5 43 4
5 2 43 4
3 4 80 1
0 5 73 3
4 3 5 73
73 80 3 4
73 43 80 4
8 11 1 28
8 10 11 36
10 9 11 36
65 36 28 21
6 10 8 65
36 65 10 8
8 28 65 36
8 11 28 36
35 20 18 19
35 42 20 4
42 2 20 4
27 4 19 1
23 42 35 27
4 27 42 35
35 19 27 4
35 20 19 4
65 8 6 78
65 28 8 27
28 1 8 27
26 27 78 23
21 28 65 26
27 26 28 65
65 78 26 27
65 8 78 27
80 8 1 27
80 79 8 78
79 6 8 78
39 78 27 23
37 79 80 39
78 39 79 80
80 27 39 78
80 8 27 78
42 43 2 4
42 39 43 80
39 37 43 80
27 80 4 1
23 39 42 27
80 27 39 42
42 4 27 80
42 43 4 80
62 66 61 77
62 65 66 78
65 6 66 78
26 78 77 23
21 65 62 26
78 26 65 62
62 77 26 78
62 66 77 78
79 66 6 78
79 69 66 77
69 61 66 77
39 77 78 23
37 69 79 39
77 39 69 79
79 78 39 77
79 66 78 77
64 33 21 24
64 59 33 34
59 32 33 34
54 34 24 22
53 59 64 54
34 54 59 64
64 24 54 34
64 33 24 34
74 64 21 24
74 55 64 54
55 53 64 54
50 54 24 22
49 55 74 50
54 50 55 74
74 24 50 54
74 64 24 54
51 75 38 52
51 74 75 24
74 21 75 24
50 24 52 22
49 74 51 50
24 50 74 51
51 52 50 24
51 75 52 24
63 62 61 71
63 64 62 74
64 21 62 74
55 74 71 49
53 64 63 55
74 55 64 63
63 71 55 74
63 62 71 74
75 62 21 74
75 76 62 71
76 61 62 71
51 71 74 49
38 76 75 51
71 51 76 75
75 74 51 71
75 62 74 71
62 77 61 76
62 26 77 41
26 23 77 41
75 41 76 38
21 26 62 75
41 75 26 62
62 76 75 41
62 77 76 41
41 26 23 25
41 75 26 24
75 21 26 24
52 24 25 22
38 75 41 52
24 52 75 41
41 25 52 24
41 26 25 24
45 31 29 30
45 41 31 25
41 23 31 25
52 25 30 22
38 41 45 52
25 52 41 45
45 30 52 25
45 31 30 25
77 69 61 76
77 39 69 40
39 37 69 40
41 40 76 38
23 39 77 41
40 41 39 77
77 76 41 40
77 69 76 40
40 47 37 70
40 48 47 60
48 46 47 60
51 60 70 49
38 48 40 51
60 51 48 40
40 70 51 60
40 47 70 60
76 69 61 71
76 40 69 70
40 37 69 70
51 70 71 49
38 40 76 51
70 51 40 76
76 71 51 70
76 69 71 70
57 68 56 58
57 63 68 71
63 61 68 71
55 71 58 49
53 63 57 55
71 55 63 57
57 58 55 71
57 68 58 71
</DataArray>
<DataArray Name="offsets" type="Int32" format="ascii">
4
8
12
16
20
24
28
32
36
40
44
48
52
56
60
64
68
72
76
80
84
88
92
96
100
104
108
112
116
120
124
128
132
136
140
144
148
152
156
160
164
168
172
176
180
184
188
192
196
200
204
208
212
216
220
224
228
232
236
240
244
248
252
256
260
264
268
272
276
280
284
288
292
296
300
304
308
312
316
320
324
328
332
336
340
344
348
352
356
360
364
368
372
376
380
384
388
392
396
400
404
408
412
416
420
424
428
432
436
440
444
448
452
456
460
464
468
472
476
480
484
488
492
496
500
504
508
512
516
520
524
528
532
536
540
544
548
552
556
560
564
568
572
576
580
584
588
592
596
600
604
608
612
616
620
624
628
632
636
640
644
648
652
656
660
664
668
672
676
680
684
688
692
696
700
704
708
712
716
720
724
728
732
736
740
744
748
752
756
760
764
768
</DataArray>
<DataArray Name="types" type="UInt8" format="ascii">
10
10
10
10
10
10
10
10
10
10
10
10
10
10
10
10
10
10
10
10
10
10
10
10
10
10
10
10
10
10
10
10
10
10
10
10
10
10
10
10
10
10
10
10
10
10
10
10
10
10
10
10
10
10
10
10
10
10
10
10
10
10
10
10
10
10
10
10
10
10
10
10
10
10
10
10
10
10
10
10
10
10
10
10
10
10
10
10
10
10
10
10
10
10
10
10
10
10
10
10
10
10
10
10
10
10
10
10
10
10
10
10
10
10
10
10
10
10
10
10
10
10
10
10
10
10
10
10
10
10
10
10
10
10
10
10
10
10
10
10
10
10
10
10
10
10
10
10
10
10
10
10
10
10
10
10
10
10
10
10
10
10
10
10
10
10
10
10
10
10
10
10
10
10
10
10
10
10
10
10
10
10
10
10
10
10
10
10
10
10
10
10
</DataArray>
</Cells>
<PointData>
<DataArray Name="mesh_vars/Nodes_Id" type="Float64" NumberOfComponents="1" format="ascii">
0.000000e+00
1.000000e+00
2.000000e+00
3.000000e+00
4.000000e+00
5.000000e+00
6.000000e+00
7.000000e+00
8.000000e+00
9.000000e+00
1.000000e+01
1.100000e+01
1.200000e+01
1.300000e+01
1.400000e+01
1.500000e+01
1.600000e+01
1.700000e+01
1.800000e+01
1.900000e+01
2.000000e+01
2.100000e+01
2.200000e+01
2.300000e+01
2.400000e+01
2.500000e+01
2.600000e+01
2.700000e+01
2.800000e+01
2.900000e+01
3.000000e+01
3.100000e+01
3.200000e+01
3.300000e+01
3.400000e+01
3.500000e+01
3.600000e+01
3.700000e+01
3.800000e+01
3.900000e+01
4.000000e+01
4.100000e+01
4.200000e+01
4.300000e+01
4.400000e+01
4.500000e+01
4.600000e+01
4.700000e+01
4.800000e+01
4.900000e+01
5.000000e+01
5.100000e+01
5.200000e+01
5.300000e+01
5.400000e+01
5.500000e+01
5.600000e+01
5.700000e+01
5.800000e+01
5.900000e+01
6.000000e+01
6.100000e+01
6.200000e+01
6.300000e+01
6.400000e+01
6.500000e+01
6.600000e+01
6.700000e+01
6.800000e+01
6.900000e+01
7.000000e+01
7.100000e+01
7.200000e+01
7.300000e+01
7.400000e+01
7.500000e+01
7.600000e+01
7.700000e+01
7.800000e+01
7.900000e+01
8.000000e+01
</DataArray>
<DataArray Name="mesh_vars/Nodes_Tag" type="Float64" NumberOfComponents="1" format="ascii">
0.000000e+00
0.000000e+00
0.000000e+00
0.000000e+00
0.000000e+00
0.000000e+00
0.000000e+00
0.000000e+00
0.000000e+00
0.000000e+00
0.000000e+00
0.000000e+00
0.000000e+00
0.000000e+00
0.000000e+00
0.000000e+00
0.000000e+00
0.000000e+00
0.000000e+00
0.000000e+00
0.000000e+00
0.000000e+00
0.000000e+00
0.000000e+00
0.000000e+00
0.000000e+00
0.000000e+00
0.000000e+00
0.000000e+00
0.000000e+00
0.000000e+00
0.000000e+00
0.000000e+00
0.000000e+00
0.000000e+00
0.000000e+00
0.000000e+00
0.000000e+00
0.000000e+00
0.000000e+00
0.000000e+00
0.000000e+00
0.000000e+00
0.000000e+00
0.000000e+00
0.000000e+00
0.000000e+00
0.000000e+00
0.000000e+00
0.000000e+00
0.000000e+00
0.000000e+00
0.000000e+00
0.000000e+00
0.000000e+00
0.000000e+00
0.000000e+00
0.000000e+00
0.000000e+00
0.000000e+00
0.000000e+00
0.000000e+00
0.000000e+00
0.000000e+00
0.000000e+00
0.000000e+00
0.000000e+00
0.000000e+00
0.000000e+00
0.000000e+00
0.000000e+00
0.000000e+00
0.000000e+00
0.000000e+00
0.000000e+00
0.000000e+00
0.000000e+00
0.000000e+00
0.000000e+00
0.000000e+00
0.000000e+00
</DataArray>
<DataArray Name="mesh_vars/Nodes_gDOF" type="Float64" NumberOfComponents="1" format="ascii">
0.000000e+00
1.000000e+00
2.000000e+00
3.000000e+00
4.000000e+00
5.000000e+00
6.000000e+00
7.000000e+00
8.000000e+00
9.000000e+00
1.000000e+01
1.100000e+01
1.200000e+01
1.300000e+01
1.400000e+01
1.500000e+01
1.600000e+01
1.700000e+01
1.800000e+01
1.900000e+01
2.000000e+01
2.100000e+01
2.200000e+01
2.300000e+01
2.400000e+01
2.500000e+01
2.600000e+01
2.700000e+01
2.800000e+01
2.900000e+01
3.000000e+01
3.100000e+01
3.200000e+01
3.300000e+01
3.400000e+01
3.500000e+01
3.600000e+01
3.700000e+01
3.800000e+01
3.900000e+01
4.000000e+01
4.100000e+01
4.200000e+01
4.300000e+01
4.400000e+01
4.500000e+01
4.600000e+01
4.700000e+01
4.800000e+01
4.900000e+01
5.000000e+01
5.100000e+01
5.200000e+01
5.300000e+01
5.400000e+01
5.500000e+01
5.600000e+01
5.700000e+01
5.800000e+01
5.900000e+01
6.000000e+01
6.100000e+01
6.200000e+01
6.300000e+01
6.400000e+01
6.500000e+01
6.600000e+01
6.700000e+01
6.800000e+01
6.900000e+01
7.000000e+01
7.100000e+01
7.200000e+01
7.300000e+01
7.400000e+01
7.500000e+01
7.600000e+01
7.700000e+01
7.800000e+01
7.900000e+01
8.000000e+01
</DataArray>
<DataArray Name="mesh_vars/Nodes_gNI" type="Float64" NumberOfComponents="1" format="ascii">
0.000000e+00
1.000000e+00
2.000000e+00
3.000000e+00
4.000000e+00
5.000000e+00
6.000000e+00
7.000000e+00
8.000000e+00
9.000000e+00
1.000000e+01
1.100000e+01
1.200000e+01
1.300000e+01
1.400000e+01
1.500000e+01
1.600000e+01
1.700000e+01
1.800000e+01
1.900000e+01
2.000000e+01
2.100000e+01
2.200000e+01
2.300000e+01
2.400000e+01
2.500000e+01
2.600000e+01
2.700000e+01
2.800000e+01
2.900000e+01
3.000000e+01
3.100000e+01
3.200000e+01
3.300000e+01
3.400000e+01
3.500000e+01
3.600000e+01
3.700000e+01
3.800000e+01
3.900000e+01
4.000000e+01
4.100000e+01
4.200000e+01
4.300000e+01
4.400000e+01
4.500000e+01
4.600000e+01
4.700000e+01
4.800000e+01
4.900000e+01
5.000000e+01
5.100000e+01
5.200000e+01
5.300000e+01
5.400000e+01
5.500000e+01
5.600000e+01
5.700000e+01
5.800000e+01
5.900000e+01
6.000000e+01
6.100000e+01
6.200000e+01
6.300000e+01
6.400000e+01
6.500000e+01
6.600000e+01
6.700000e+01
6.800000e+01
6.900000e+01
7.000000e+01
7.100000e+01
7.200000e+01
7.300000e+01
7.400000e+01
7.500000e+01
7.600000e+01
7.700000e+01
7.800000e+01
7.900000e+01
8.000000e+01
</DataArray>
<DataArray Name="mesh_vars/Nodes_grDfI" type="Float64" NumberOfComponents="1" format="ascii">
0.000000e+00
1.000000e+00
2.000000e+00
-1.000000e+00
-1.000000e+00
-1.000000e+00
3.000000e+00
-1.000000e+00
-1.000000e+00
4.000000e+00
-1.000000e+00
-1.000000e+00
5.000000e+00
-1.000000e+00
-1.000000e+00
6.000000e+00
-1.000000e+00
-1.000000e+00
7.000000e+00
-1.000000e+00
-1.000000e+00
8.000000e+00
9.000000e+00
1.000000e+01
-1.000000e+00
-1.000000e+00
-1.000000e+00
-1.000000e+00
-1.000000e+00
1.100000e+01
-1.000000e+00
-1.000000e+00
1.200000e+01
-1.000000e+00
-1.000000e+00
-1.000000e+00
-1.000000e+00
1.300000e+01
1.400000e+01
-1.000000e+00
-1.000000e+00
-1.000000e+00
-1.000000e+00
-1.000000e+00
-1.000000e+00
-1.000000e+00
1.500000e+01
-1.000000e+00
-1.000000e+00
1.600000e+01
-1.000000e+00
-1.000000e+00
-1.000000e+00
1.700000e+01
-1.000000e+00
-1.000000e+00
1.800000e+01
-1.000000e+00
-1.000000e+00
-1.000000e+00
-1.000000e+00
1.900000e+01
-1.000000e+00
-1.000000e+00
-1.000000e+00
-1.000000e+00
-1.000000e+00
-1.000000e+00
-1.000000e+00
-1.000000e+00
-1.000000e+00
-1.000000e+00
-1.000000e+00
-1.000000e+00
-1.000000e+00
-1.000000e+00
-1.000000e+00
-1.000000e+00
-1.000000e+00
-1.000000e+00
-1.000000e+00
</DataArray>
<DataArray Name="mesh_vars/Nodes_grNI" type="Float64" NumberOfComponents="1" format="ascii">
0.000000e+00
1.000000e+00
2.000000e+00
-1.000000e+00
-1.000000e+00
-1.000000e+00
3.000000e+00
-1.000000e+00
-1.000000e+00
4.000000e+00
-1.000000e+00
-1.000000e+00
5.000000e+00
-1.000000e+00
-1.000000e+00
6.000000e+00
-1.000000e+00
-1.000000e+00
7.000000e+00
-1.000000e+00
-1.000000e+00
8.000000e+00
9.000000e+00
1.000000e+01
-1.000000e+00
-1.000000e+00
-1.000000e+00
-1.000000e+00
-1.000000e+00
1.100000e+01
-1.000000e+00
-1.000000e+00
1.200000e+01
-1.000000e+00
-1.000000e+00
-1.000000e+00
-1.000000e+00
1.300000e+01
1.400000e+01
-1.000000e+00
-1.000000e+00
-1.000000e+00
-1.000000e+00
-1.000000e+00
-1.000000e+00
-1.000000e+00
1.500000e+01
-1.000000e+00
-1.000000e+00
1.600000e+01
-1.000000e+00
-1.000000e+00
-1.000000e+00
1.700000e+01
-1.000000e+00
-1.000000e+00
1.800000e+01
-1.000000e+00
-1.000000e+00
-1.000000e+00
-1.000000e+00
1.900000e+01
-1.000000e+00
-1.000000e+00
-1.000000e+00
-1.000000e+00
-1.000000e+00
-1.000000e+00
-1.000000e+00
-1.000000e+00
-1.000000e+00
-1.000000e+00
-1.000000e+00
-1.000000e+00
-1.000000e+00
-1.000000e+00
-1.000000e+00
-1.000000e+00
-1.000000e+00
-1.000000e+00
-1.000000e+00
</DataArray>
</PointData>
<CellData>
<DataArray Name="data_s" type="Float64" NumberOfComponents="1" format="ascii">
9.375000e-01
9.295424e-01
9.375000e-01
9.375000e-01
6.875000e-01
8.577254e-01
8.204576e-01
8.922746e-01
9.375000e-01
8.204576e-01
6.875000e-01
9.375000e-01
9.375000e-01
8.922746e-01
9.295424e-01
8.577254e-01
6.250000e-01
7.500000e-01
8.750000e-01
6.250000e-01
8.750000e-01
7.500000e-01
7.500000e-01
7.500000e-01
9.375000e-01
9.295424e-01
9.375000e-01
9.375000e-01
6.875000e-01
8.577254e-01
8.204576e-01
8.922746e-01
6.875000e-01
8.577254e-01
9.375000e-01
9.375000e-01
9.375000e-01
9.295424e-01
8.922746e-01
8.204576e-01
9.375000e-01
8.922746e-01
9.375000e-01
6.875000e-01
9.375000e-01
8.204576e-01
8.577254e-01
9.295424e-01
9.375000e-01
9.295424e-01
9.375000e-01
9.375000e-01
6.875000e-01
8.577254e-01
8.204576e-01
8.922746e-01
8.750000e-01
8.218170e-01
8.750000e-01
6.250000e-01
6.250000e-01
6.781830e-01
6.781830e-01
8.218170e-01
8.750000e-01
8.218170e-01
8.750000e-01
6.250000e-01
6.250000e-01
6.781830e-01
6.781830e-01
8.218170e-01
8.750000e-01
7.500000e-01
6.250000e-01
8.750000e-01
6.250000e-01
7.500000e-01
7.500000e-01
7.500000e-01
5.625000e-01
6.795424e-01
8.125000e-01
5.625000e-01
5.625000e-01
6.077254e-01
5.704576e-01
6.422746e-01
8.125000e-01
6.422746e-01
5.625000e-01
5.625000e-01
5.625000e-01
5.704576e-01
6.077254e-01
6.795424e-01
3.125000e-01
1.422746e-01
6.250000e-02
6.250000e-02
6.250000e-02
7.045763e-02
1.077254e-01
1.795424e-01
3.125000e-01
1.422746e-01
6.250000e-02
6.250000e-02
6.250000e-02
7.045763e-02
1.077254e-01
1.795424e-01
6.250000e-02
1.795424e-01
3.125000e-01
6.250000e-02
6.250000e-02
1.077254e-01
7.045763e-02
1.422746e-01
3.750000e-01
3.218170e-01
3.750000e-01
1.250000e-01
1.250000e-01
1.781830e-01
1.781830e-01
3.218170e-01
3.750000e-01
3.218170e-01
3.750000e-01
1.250000e-01
1.250000e-01
1.781830e-01
1.781830e-01
3.218170e-01
4.375000e-01
3.922746e-01
4.375000e-01
1.875000e-01
4.375000e-01
3.204576e-01
3.577254e-01
4.295424e-01
3.750000e-01
3.218170e-01
3.750000e-01
1.250000e-01
1.250000e-01
1.781830e-01
1.781830e-01
3.218170e-01
6.250000e-02
1.795424e-01
3.125000e-01
6.250000e-02
6.250000e-02
1.077254e-01
7.045763e-02
1.422746e-01
4.375000e-01
3.922746e-01
4.375000e-01
1.875000e-01
4.375000e-01
3.204576e-01
3.577254e-01
4.295424e-01
3.125000e-01
1.422746e-01
6.250000e-02
6.250000e-02
6.250000e-02
7.045763e-02
1.077254e-01
1.795424e-01
3.750000e-01
3.218170e-01
3.750000e-01
1.250000e-01
1.250000e-01
1.781830e-01
1.781830e-01
3.218170e-01
6.250000e-02
1.795424e-01
3.125000e-01
6.250000e-02
6.250000e-02
1.077254e-01
7.045763e-02
1.422746e-01
</DataArray>
<DataArray Name="data_t" type="Float64" NumberOfComponents="9" format="ascii">
1.031250e+01 1.968750e+01 2.906250e+01 1.125000e+01 2.062500e+01 3.000000e+01 1.218750e+01 2.156250e+01 3.093750e+01
1.022497e+01 1.952039e+01 2.881581e+01 1.115451e+01 2.044993e+01 2.974536e+01 1.208405e+01 2.137947e+01 3.067490e+01
1.031250e+01 1.968750e+01 2.906250e+01 1.125000e+01 2.062500e+01 3.000000e+01 1.218750e+01 2.156250e+01 3.093750e+01
1.031250e+01 1.968750e+01 2.906250e+01 1.125000e+01 2.062500e+01 3.000000e+01 1.218750e+01 2.156250e+01 3.093750e+01
7.562500e+00 1.443750e+01 2.131250e+01 8.250000e+00 1.512500e+01 2.200000e+01 8.937500e+00 1.581250e+01 2.268750e+01
9.434979e+00 1.801223e+01 2.658949e+01 1.029271e+01 1.886996e+01 2.744721e+01 1.115043e+01 1.972768e+01 2.830494e+01
9.025034e+00 1.722961e+01 2.543419e+01 9.845491e+00 1.805007e+01 2.625464e+01 1.066595e+01 1.887053e+01 2.707510e+01
9.815021e+00 1.873777e+01 2.766051e+01 1.070729e+01 1.963004e+01 2.855279e+01 1.159957e+01 2.052232e+01 2.944506e+01
1.031250e+01 1.968750e+01 2.906250e+01 1.125000e+01 2.062500e+01 3.000000e+01 1.218750e+01 2.156250e+01 3.093750e+01
9.025034e+00 1.722961e+01 2.543419e+01 9.845491e+00 1.805007e+01 2.625464e+01 1.066595e+01 1.887053e+01 2.707510e+01
7.562500e+00 1.443750e+01 2.131250e+01 8.250000e+00 1.512500e+01 2.200000e+01 8.937500e+00 1.581250e+01 2.268750e+01
1.031250e+01 1.968750e+01 2.906250e+01 1.125000e+01 2.062500e+01 3.000000e+01 1.218750e+01 2.156250e+01 3.093750e+01
1.031250e+01 1.968750e+01 2.906250e+01 1.125000e+01 2.062500e+01 3.000000e+01 1.218750e+01 2.156250e+01 3.093750e+01
9.815021e+00 1.873777e+01 2.766051e+01 1.070729e+01 1.963004e+01 2.855279e+01 1.159957e+01 2.052232e+01 2.944506e+01
1.022497e+01 1.952039e+01 2.881581e+01 1.115451e+01 2.044993e+01 2.974536e+01 1.208405e+01 2.137947e+01 3.067490e+01
9.434979e+00 1.801223e+01 2.658949e+01 1.029271e+01 1.886996e+01 2.744721e+01 1.115043e+01 1.972768e+01 2.830494e+01
6.875000e+00 1.312500e+01 1.937500e+01 7.500000e+00 1.375000e+01 2.000000e+01 8.125000e+00 1.437500e+01 2.062500e+01
8.250000e+00 1.575000e+01 2.325000e+01 9.000000e+00 1.650000e+01 2.400000e+01 9.750000e+00 1.725000e+01 2.475000e+01
9.625000e+00 1.837500e+01 2.712500e+01 1.050000e+01 1.925000e+01 2.800000e+01 1.137500e+01 2.012500e+01 2.887500e+01
6.875000e+00 1.312500e+01 1.937500e+01 7.500000e+00 1.375000e+01 2.000000e+01 8.125000e+00 1.437500e+01 2.062500e+01
9.625000e+00 1.837500e+01 2.712500e+01 1.050000e+01 1.925000e+01 2.800000e+01 1.137500e+01 2.012500e+01 2.887500e+01
8.250000e+00 1.575000e+01 2.325000e+01 9.000000e+00 1.650000e+01 2.400000e+01 9.750000e+00 1.725000e+01 2.475000e+01
8.250000e+00 1.575000e+01 2.325000e+01 9.000000e+00 1.650000e+01 2.400000e+01 9.750000e+00 1.725000e+01 2.475000e+01
8.250000e+00 1.575000e+01 2.325000e+01 9.000000e+00 1.650000e+01 2.400000e+01 9.750000e+00 1.725000e+01 2.475000e+01
1.031250e+01 1.968750e+01 2.906250e+01 1.125000e+01 2.062500e+01 3.000000e+01 1.218750e+01 2.156250e+01 3.093750e+01
1.022497e+01 1.952039e+01 2.881581e+01 1.115451e+01 2.044993e+01 2.974536e+01 1.208405e+01 2.137947e+01 3.067490e+01
1.031250e+01 1.968750e+01 2.906250e+01 1.125000e+01 2.062500e+01 3.000000e+01 1.218750e+01 2.156250e+01 3.093750e+01
1.031250e+01 1.968750e+01 2.906250e+01 1.125000e+01 2.062500e+01 3.000000e+01 1.218750e+01 2.156250e+01 3.093750e+01
7.562500e+00 1.443750e+01 2.131250e+01 8.250000e+00 1.512500e+01 2.200000e+01 8.937500e+00 1.581250e+01 2.268750e+01
9.434979e+00 1.801223e+01 2.658949e+01 1.029271e+01 1.886996e+01 2.744721e+01 1.115043e+01 1.972768e+01 2.830494e+01
9.025034e+00 1.722961e+01 2.543419e+01 9.845491e+00 1.805007e+01 2.625464e+01 1.066595e+01 1.887053e+01 2.707510e+01
9.815021e+00 1.873777e+01 2.766051e+01 1.070729e+01 1.963004e+01 2.855279e+01 1.159957e+01 2.052232e+01 2.944506e+01
7.562500e+00 1.443750e+01 2.131250e+01 8.250000e+00 1.512500e+01 2.200000e+01 8.937500e+00 1.581250e+01 2.268750e+01
9.434979e+00 1.801223e+01 2.658949e+01 1.029271e+01 1.886996e+01 2.744721e+01 1.115043e+01 1.972768e+01 2.830494e+01
1.031250e+01 1.968750e+01 2.906250e+01 1.125000e+01 2.062500e+01 3.000000e+01 1.218750e+01 2.156250e+01 3.093750e+01
1.031250e+01 1.968750e+01 2.906250e+01 1.125000e+01 2.062500e+01 3.000000e+01 1.218750e+01 2.156250e+01 3.093750e+01
1.031250e+01 1.968750e+01 2.906250e+01 1.125000e+01 2.062500e+01 3.000000e+01 1.218750e+01 2.156250e+01 3.093750e+01
1.022497e+01 1.952039e+01 2.881581e+01 1.115451e+01 2.044993e+01 2.974536e+01 1.208405e+01 2.137947e+01 3.067490e+01
9.815021e+00 1.873777e+01 2.766051e+01 1.070729e+01 1.963004e+01 2.855279e+01 1.159957e+01 2.052232e+01 2.944506e+01
9.025034e+00 1.722961e+01 2.543419e+01 9.845491e+00 1.805007e+01 2.625464e+01 1.066595e+01 1.887053e+01 2.707510e+01
1.031250e+01 1.968750e+01 2.906250e+01 1.125000e+01 2.062500e+01 3.000000e+01 1.218750e+01 2.156250e+01 3.093750e+01
9.815021e+00 1.873777e+01 2.766051e+01 1.070729e+01 1.963004e+01 2.855279e+01 1.159957e+01 2.052232e+01 2.944506e+01
1.031250e+01 1.968750e+01 2.906250e+01 1.125000e+01 2.062500e+01 3.000000e+01 1.218750e+01 2.156250e+01 3.093750e+01
7.562500e+00 1.443750e+01 2.131250e+01 8.250000e+00 1.512500e+01 2.200000e+01 8.937500e+00 1.581250e+01 2.268750e+01
1.031250e+01 1.968750e+01 2.906250e+01 1.125000e+01 2.062500e+01 3.000000e+01 1.218750e+01 2.156250e+01 3.093750e+01
9.025034e+00 1.722961e+01 2.543419e+01 9.845491e+00 1.805007e+01 2.625464e+01 1.066595e+01 1.887053e+01 2.707510e+01
9.434979e+00 1.801223e+01 2.658949e+01 1.029271e+01 1.886996e+01 2.744721e+01 1.115043e+01 1.972768e+01 2.830494e+01
1.022497e+01 1.952039e+01 2.881581e+01 1.115451e+01 2.044993e+01 2.974536e+01 1.208405e+01 2.137947e+01 3.067490e+01
1.031250e+01 1.968750e+01 2.906250e+01 1.125000e+01 2.062500e+01 3.000000e+01 1.218750e+01 2.156250e+01 3.093750e+01
1.022497e+01 1.952039e+01 2.881581e+01 1.115451e+01 2.044993e+01 2.974536e+01 1.208405e+01 2.137947e+01 3.067490e+01
1.031250e+01 1.968750e+01 2.906250e+01 1.125000e+01 2.062500e+01 3.000000e+01 1.218750e+01 2.156250e+01 3.093750e+01
1.031250e+01 1.968750e+01 2.906250e+01 1.125000e+01 2.062500e+01 3.000000e+01 1.218750e+01 2.156250e+01 3.093750e+01
7.562500e+00 1.443750e+01 2.131250e+01 8.250000e+00 1.512500e+01 2.200000e+01 8.937500e+00 1.581250e+01 2.268750e+01
9.434979e+00 1.801223e+01 2.658949e+01 1.029271e+01 1.886996e+01 2.744721e+01 1.115043e+01 1.972768e+01 2.830494e+01
9.025034e+00 1.722961e+01 2.543419e+01 9.845491e+00 1.805007e+01 2.625464e+01 1.066595e+01 1.887053e+01 2.707510e+01
9.815021e+00 1.873777e+01 2.766051e+01 1.070729e+01 1.963004e+01 2.855279e+01 1.159957e+01 2.052232e+01 2.944506e+01
9.625000e+00 1.837500e+01 2.712500e+01 1.050000e+01 1.925000e+01 2.800000e+01 1.137500e+01 2.012500e+01 2.887500e+01
9.039987e+00 1.725816e+01 2.547633e+01 9.861803e+00 1.807997e+01 2.629814e+01 1.068362e+01 1.890179e+01 2.711996e+01
9.625000e+00 1.837500e+01 2.712500e+01 1.050000e+01 1.925000e+01 2.800000e+01 1.137500e+01 2.012500e+01 2.887500e+01
6.875000e+00 1.312500e+01 1.937500e+01 7.500000e+00 1.375000e+01 2.000000e+01 8.125000e+00 1.437500e+01 2.062500e+01
6.875000e+00 1.312500e+01 1.937500e+01 7.500000e+00 1.375000e+01 2.000000e+01 8.125000e+00 1.437500e+01 2.062500e+01
7.460013e+00 1.424184e+01 2.102367e+01 8.138197e+00 1.492003e+01 2.170186e+01 8.816380e+00 1.559821e+01 2.238004e+01
7.460013e+00 1.424184e+01 2.102367e+01 8.138197e+00 1.492003e+01 2.170186e+01 8.816380e+00 1.559821e+01 2.238004e+01
9.039987e+00 1.725816e+01 2.547633e+01 9.861803e+00 1.807997e+01 2.629814e+01 1.068362e+01 1.890179e+01 2.711996e+01
9.625000e+00 1.837500e+01 2.712500e+01 1.050000e+01 1.925000e+01 2.800000e+01 1.137500e+01 2.012500e+01 2.887500e+01
9.039987e+00 1.725816e+01 2.547633e+01 9.861803e+00 1.807997e+01 2.629814e+01 1.068362e+01 1.890179e+01 2.711996e+01
9.625000e+00 1.837500e+01 2.712500e+01 1.050000e+01 1.925000e+01 2.800000e+01 1.137500e+01 2.012500e+01 2.887500e+01
6.875000e+00 1.312500e+01 1.937500e+01 7.500000e+00 1.375000e+01 2.000000e+01 8.125000e+00 1.437500e+01 2.062500e+01
6.875000e+00 1.312500e+01 1.937500e+01 7.500000e+00 1.375000e+01 2.000000e+01 8.125000e+00 1.437500e+01 2.062500e+01
7.460013e+00 1.424184e+01 2.102367e+01 8.138197e+00 1.492003e+01 2.170186e+01 8.816380e+00 1.559821e+01 2.238004e+01
7.460013e+00 1.424184e+01 2.102367e+01 8.138197e+00 1.492003e+01 2.170186e+01 8.816380e+00 1.559821e+01 2.238004e+01
9.039987e+00 1.725816e+01 2.547633e+01 9.861803e+00 1.807997e+01 2.629814e+01 1.068362e+01 1.890179e+01 2.711996e+01
9.625000e+00 1.837500e+01 2.712500e+01 1.050000e+01 1.925000e+01 2.800000e+01 1.137500e+01 2.012500e+01 2.887500e+01
8.250000e+00 1.575000e+01 2.325000e+01 9.000000e+00 1.650000e+01 2.400000e+01 9.750000e+00 1.725000e+01 2.475000e+01
6.875000e+00 1.312500e+01 1.937500e+01 7.500000e+00 1.375000e+01 2.000000e+01 8.125000e+00 1.437500e+01 2.062500e+01
9.625000e+00 1.837500e+01 2.712500e+01 1.050000e+01 1.925000e+01 2.800000e+01 1.137500e+01 2.012500e+01 2.887500e+01
6.875000e+00 1.312500e+01 1.937500e+01 7.500000e+00 1.375000e+01 2.000000e+01 8.125000e+00 1.437500e+01 2.062500e+01
8.250000e+00 1.575000e+01 2.325000e+01 9.000000e+00 1.650000e+01 2.400000e+01 9.750000e+00 1.725000e+01 2.475000e+01
8.250000e+00 1.575000e+01 2.325000e+01 9.000000e+00 1.650000e+01 2.400000e+01 9.750000e+00 1.725000e+01 2.475000e+01
8.250000e+00 1.575000e+01 2.325000e+01 9.000000e+00 1.650000e+01 2.400000e+01 9.750000e+00 1.725000e+01 2.475000e+01
6.187500e+00 1.181250e+01 1.743750e+01 6.750000e+00 1.237500e+01 1.800000e+01 7.312500e+00 1.293750e+01 1.856250e+01
7.474966e+00 1.427039e+01 2.106581e+01 8.154509e+00 1.494993e+01 2.174536e+01 8.834051e+00 1.562947e+01 2.242490e+01
8.937500e+00 1.706250e+01 2.518750e+01 9.750000e+00 1.787500e+01 2.600000e+01 1.056250e+01 1.868750e+01 2.681250e+01
6.187500e+00 1.181250e+01 1.743750e+01 6.750000e+00 1.237500e+01 1.800000e+01 7.312500e+00 1.293750e+01 1.856250e+01
6.187500e+00 1.181250e+01 1.743750e+01 6.750000e+00 1.237500e+01 1.800000e+01 7.312500e+00 1.293750e+01 1.856250e+01
6.684979e+00 1.276223e+01 1.883949e+01 7.292705e+00 1.336996e+01 1.944721e+01 7.900431e+00 1.397768e+01 2.005494e+01
6.275034e+00 1.197961e+01 1.768419e+01 6.845491e+00 1.255007e+01 1.825464e+01 7.415949e+00 1.312053e+01 1.882510e+01
7.065021e+00 1.348777e+01 1.991051e+01 7.707295e+00 1.413004e+01 2.055279e+01 8.349569e+00 1.477232e+01 2.119506e+01
8.937500e+00 1.706250e+01 2.518750e+01 9.750000e+00 1.787500e+01 2.600000e+01 1.056250e+01 1.868750e+01 2.681250e+01
7.065021e+00 1.348777e+01 1.991051e+01 7.707295e+00 1.413004e+01 2.055279e+01 8.349569e+00 1.477232e+01 2.119506e+01
6.187500e+00 1.181250e+01 1.743750e+01 6.750000e+00 1.237500e+01 1.800000e+01 7.312500e+00 1.293750e+01 1.856250e+01
6.187500e+00 1.181250e+01 1.743750e+01 6.750000e+00 1.237500e+01 1.800000e+01 7.312500e+00 1.293750e+01 1.856250e+01
6.187500e+00 1.181250e+01 1.743750e+01 6.750000e+00 1.237500e+01 1.800000e+01 7.312500e+00 1.293750e+01 1.856250e+01
6.275034e+00 1.197961e+01 1.768419e+01 6.845491e+00 1.255007e+01 1.825464e+01 7.415949e+00 1.312053e+01 1.882510e+01
6.684979e+00 1.276223e+01 1.883949e+01 7.292705e+00 1.336996e+01 1.944721e+01 7.900431e+00 1.397768e+01 2.005494e+01
7.474966e+00 1.427039e+01 2.106581e+01 8.154509e+00 1.494993e+01 2.174536e+01 8.834051e+00 1.562947e+01 2.242490e+01
3.437500e+00 6.562500e+00 9.687500e+00 3.750000e+00 6.875000e+00 1.000000e+01 4.062500e+00 7.187500e+00 1.031250e+01
1.565020e+00 2.987766e+00 4.410512e+00 1.707295e+00 3.130041e+00 4.552786e+00 1.849569e+00 3.272315e+00 4.695061e+00
6.875000e-01 1.312500e+00 1.937500e+00 7.500000e-01 1.375000e+00 2.000000e+00 8.125000e-01 1.437500e+00 2.062500e+00
6.875000e-01 1.312500e+00 1.937500e+00 7.500000e-01 1.375000e+00 2.000000e+00 8.125000e-01 1.437500e+00 2.062500e+00
6.875000e-01 1.312500e+00 1.937500e+00 7.500000e-01 1.375000e+00 2.000000e+00 8.125000e-01 1.437500e+00 2.062500e+00
7.750339e-01 1.479610e+00 2.184186e+00 8.454915e-01 1.550068e+00 2.254644e+00 9.159491e-01 1.620525e+00 2.325102e+00
1.184980e+00 2.262234e+00 3.339488e+00 1.292705e+00 2.369959e+00 3.447214e+00 1.400430e+00 2.477685e+00 3.554939e+00
1.974966e+00 3.770390e+00 5.565814e+00 2.154509e+00 3.949932e+00 5.745356e+00 2.334051e+00 4.129475e+00 5.924898e+00
3.437500e+00 6.562500e+00 9.687500e+00 3.750000e+00 6.875000e+00 1.000000e+01 4.062500e+00 7.187500e+00 1.031250e+01
1.565020e+00 2.987766e+00 4.410512e+00 1.707295e+00 3.130041e+00 4.552786e+00 1.849569e+00 3.272315e+00 4.695061e+00
6.875000e-01 1.312500e+00 1.937500e+00 7.500000e-01 1.375000e+00 2.000000e+00 8.125000e-01 1.437500e+00 2.062500e+00
6.875000e-01 1.312500e+00 1.937500e+00 7.500000e-01 1.375000e+00 2.000000e+00 8.125000e-01 1.437500e+00 2.062500e+00
6.875000e-01 1.312500e+00 1.937500e+00 7.500000e-01 1.375000e+00 2.000000e+00 8.125000e-01 1.437500e+00 2.062500e+00