<?xml version="1.0"?>
<VTKFile type="UnstructuredGrid" version="0.1">
<UnstructuredGrid>
<Piece NumberOfPoints="3830" NumberOfCells="7422">
<Points>
<DataArray NumberOfComponents="3" type="Float64" format="ascii">
 0.000000e+00 0.000000e+00 0.000000e+00
 1.000000e+00 0.000000e+00 0.000000e+00
 1.000000e+00 1.000000e+00 0.000000e+00
 0.000000e+00 1.000000e+00 0.000000e+00
 1.694915e-02 0.000000e+00 0.000000e+00
 3.389831e-02 0.000000e+00 0.000000e+00
 5.084746e-02 0.000000e+00 0.000000e+00
 6.779661e-02 0.000000e+00 0.000000e+00
 8.474576e-02 0.000000e+00 0.000000e+00
 1.016949e-01 0.000000e+00 0.000000e+00
 1.186441e-01 0.000000e+00 0.000000e+00
 1.355932e-01 0.000000e+00 0.000000e+00
 1.525424e-01 0.000000e+00 0.000000e+00
 1.694915e-01 0.000000e+00 0.000000e+00
 1.864407e-01 0.000000e+00 0.000000e+00
 2.033898e-01 0.000000e+00 0.000000e+00
 2.203390e-01 0.000000e+00 0.000000e+00
 2.372881e-01 0.000000e+00 0.000000e+00
 2.542373e-01 0.000000e+00 0.000000e+00
 2.711864e-01 0.000000e+00 0.000000e+00
 2.881356e-01 0.000000e+00 0.000000e+00
 3.050847e-01 0.000000e+00 0.000000e+00
 3.220339e-01 0.000000e+00 0.000000e+00
 3.389831e-01 0.000000e+00 0.000000e+00
 3.559322e-01 0.000000e+00 0.000000e+00
 3.728814e-01 0.000000e+00 0.000000e+00
 3.898305e-01 0.000000e+00 0.000000e+00
 4.067797e-01 0.000000e+00 0.000000e+00
 4.237288e-01 0.000000e+00 0.000000e+00
 4.406780e-01 0.000000e+00 0.000000e+00
 4.576271e-01 0.000000e+00 0.000000e+00
 4.745763e-01 0.000000e+00 0.000000e+00
 4.915254e-01 0.000000e+00 0.000000e+00
 5.084746e-01 0.000000e+00 0.000000e+00
 5.254237e-01 0.000000e+00 0.000000e+00
 5.423729e-01 0.000000e+00 0.000000e+00
 5.593220e-01 0.000000e+00 0.000000e+00
 5.762712e-01 0.000000e+00 0.000000e+00
 5.932203e-01 0.000000e+00 0.000000e+00
 6.101695e-01 0.000000e+00 0.000000e+00
 6.271186e-01 0.000000e+00 0.000000e+00
 6.440678e-01 0.000000e+00 0.000000e+00
 6.610169e-01 0.000000e+00 0.000000e+00
 6.779661e-01 0.000000e+00 0.000000e+00
 6.949153e-01 0.000000e+00 0.000000e+00
 7.118644e-01 0.000000e+00 0.000000e+00
 7.288136e-01 0.000000e+00 0.000000e+00
 7.457627e-01 0.000000e+00 0.000000e+00
 7.627119e-01 0.000000e+00 0.000000e+00
 7.796610e-01 0.000000e+00 0.000000e+00
 7.966102e-01 0.000000e+00 0.000000e+00
 8.135593e-01 0.000000e+00 0.000000e+00
 8.305085e-01 0.000000e+00 0.000000e+00
 8.474576e-01 0.000000e+00 0.000000e+00
 8.644068e-01 0.000000e+00 0.000000e+00
 8.813559e-01 0.000000e+00 0.000000e+00
 8.983051e-01 0.000000e+00 0.000000e+00
 9.152542e-01 0.000000e+00 0.000000e+00
 9.322034e-01 0.000000e+00 0.000000e+00
 9.491525e-01 0.000000e+00 0.000000e+00
 9.661017e-01 0.000000e+00 0.000000e+00
 9.830508e-01 0.000000e+00 0.000000e+00
 1.000000e+00 1.694915e-02 0.000000e+00
 1.000000e+00 3.389831e-02 0.000000e+00
 1.000000e+00 5.084746e-02 0.000000e+00
 1.000000e+00 6.779661e-02 0.000000e+00
 1.000000e+00 8.474576e-02 0.000000e+00
 1.000000e+00 1.016949e-01 0.000000e+00
 1.000000e+00 1.186441e-01 0.000000e+00
 1.000000e+00 1.355932e-01 0.000000e+00
 1.000000e+00 1.525424e-01 0.000000e+00
 1.000000e+00 1.694915e-01 0.000000e+00
 1.000000e+00 1.864407e-01 0.000000e+00
 1.000000e+00 2.033898e-01 0.000000e+00
 1.000000e+00 2.203390e-01 0.000000e+00
 1.000000e+00 2.372881e-01 0.000000e+00
 1.000000e+00 2.542373e-01 0.000000e+00
 1.000000e+00 2.711864e-01 0.000000e+00
 1.000000e+00 2.881356e-01 0.000000e+00
 1.000000e+00 3.050847e-01 0.000000e+00
 1.000000e+00 3.220339e-01 0.000000e+00
 1.000000e+00 3.389831e-01 0.000000e+00
 1.000000e+00 3.559322e-01 0.000000e+00
 1.000000e+00 3.728814e-01 0.000000e+00
 1.000000e+00 3.898305e-01 0.000000e+00
 1.000000e+00 4.067797e-01 0.000000e+00
 1.000000e+00 4.237288e-01 0.000000e+00
 1.000000e+00 4.406780e-01 0.000000e+00
 1.000000e+00 4.576271e-01 0.000000e+00
 1.000000e+00 4.745763e-01 0.000000e+00
 1.000000e+00 4.915254e-01 0.000000e+00
 1.000000e+00 5.084746e-01 0.000000e+00
 1.000000e+00 5.254237e-01 0.000000e+00
 1.000000e+00 5.423729e-01 0.000000e+00
 1.000000e+00 5.593220e-01 0.000000e+00
 1.000000e+00 5.762712e-01 0.000000e+00
 1.000000e+00 5.932203e-01 0.000000e+00
 1.000000e+00 6.101695e-01 0.000000e+00
 1.000000e+00 6.271186e-01 0.000000e+00
 1.000000e+00 6.440678e-01 0.000000e+00
 1.000000e+00 6.610169e-01 0.000000e+00
 1.000000e+00 6.779661e-01 0.000000e+00
 1.000000e+00 6.949153e-01 0.000000e+00
 1.000000e+00 7.118644e-01 0.000000e+00
 1.000000e+00 7.288136e-01 0.000000e+00
 1.000000e+00 7.457627e-01 0.000000e+00
 1.000000e+00 7.627119e-01 0.000000e+00
 1.000000e+00 7.796610e-01 0.000000e+00
 1.000000e+00 7.966102e-01 0.000000e+00
 1.000000e+00 8.135593e-01 0.000000e+00
 1.000000e+00 8.305085e-01 0.000000e+00
 1.000000e+00 8.474576e-01 0.000000e+00
 1.000000e+00 8.644068e-01 0.000000e+00
 1.000000e+00 8.813559e-01 0.000000e+00
 1.000000e+00 8.983051e-01 0.000000e+00
 1.000000e+00 9.152542e-01 0.000000e+00
 1.000000e+00 9.322034e-01 0.000000e+00
 1.000000e+00 9.491525e-01 0.000000e+00
 1.000000e+00 9.661017e-01 0.000000e+00
 1.000000e+00 9.830508e-01 0.000000e+00
 9.830508e-01 1.000000e+00 0.000000e+00
 9.661017e-01 1.000000e+00 0.000000e+00
 9.491525e-01 1.000000e+00 0.000000e+00
 9.322034e-01 1.000000e+00 0.000000e+00
 9.152542e-01 1.000000e+00 0.000000e+00
 8.983051e-01 1.000000e+00 0.000000e+00
 8.813559e-01 1.000000e+00 0.000000e+00
 8.644068e-01 1.000000e+00 0.000000e+00
 8.474576e-01 1.000000e+00 0.000000e+00
 8.305085e-01 1.000000e+00 0.000000e+00
 8.135593e-01 1.000000e+00 0.000000e+00
 7.966102e-01 1.000000e+00 0.000000e+00
 7.796610e-01 1.000000e+00 0.000000e+00
 7.627119e-01 1.000000e+00 0.000000e+00
 7.457627e-01 1.000000e+00 0.000000e+00
 7.288136e-01 1.000000e+00 0.000000e+00
 7.118644e-01 1.000000e+00 0.000000e+00
 6.949153e-01 1.000000e+00 0.000000e+00
 6.779661e-01 1.000000e+00 0.000000e+00
 6.610169e-01 1.000000e+00 0.000000e+00
 6.440678e-01 1.000000e+00 0.000000e+00
 6.271186e-01 1.000000e+00 0.000000e+00
 6.101695e-01 1.000000e+00 0.000000e+00
 5.932203e-01 1.000000e+00 0.000000e+00
 5.762712e-01 1.000000e+00 0.000000e+00
 5.593220e-01 1.000000e+00 0.000000e+00
 5.423729e-01 1.000000e+00 0.000000e+00
 5.254237e-01 1.000000e+00 0.000000e+00
 5.084746e-01 1.000000e+00 0.000000e+00
 4.915254e-01 1.000000e+00 0.000000e+00
 4.745763e-01 1.000000e+00 0.000000e+00
 4.576271e-01 1.000000e+00 0.000000e+00
 4.406780e-01 1.000000e+00 0.000000e+00
 4.237288e-01 1.000000e+00 0.000000e+00
 4.067797e-01 1.000000e+00 0.000000e+00
 3.898305e-01 1.000000e+00 0.000000e+00
 3.728814e-01 1.000000e+00 0.000000e+00
 3.559322e-01 1.000000e+00 0.000000e+00
 3.389831e-01 1.000000e+00 0.000000e+00
 3.220339e-01 1.000000e+00 0.000000e+00
 3.050847e-01 1.000000e+00 0.000000e+00
 2.881356e-01 1.000000e+00 0.000000e+00
 2.711864e-01 1.000000e+00 0.000000e+00
 2.542373e-01 1.000000e+00 0.000000e+00
 2.372881e-01 1.000000e+00 0.000000e+00
 2.203390e-01 1.000000e+00 0.000000e+00
 2.033898e-01 1.000000e+00 0.000000e+00
 1.864407e-01 1.000000e+00 0.000000e+00
 1.694915e-01 1.000000e+00 0.000000e+00
 1.525424e-01 1.000000e+00 0.000000e+00
 1.355932e-01 1.000000e+00 0.000000e+00
 1.186441e-01 1.000000e+00 0.000000e+00
 1.016949e-01 1.000000e+00 0.000000e+00
 8.474576e-02 1.000000e+00 0.000000e+00
 6.779661e-02 1.000000e+00 0.000000e+00
 5.084746e-02 1.000000e+00 0.000000e+00
 3.389831e-02 1.000000e+00 0.000000e+00
 1.694915e-02 1.000000e+00 0.000000e+00
 0.000000e+00 9.830508e-01 0.000000e+00
 0.000000e+00 9.661017e-01 0.000000e+00
 0.000000e+00 9.491525e-01 0.000000e+00
 0.000000e+00 9.322034e-01 0.000000e+00
 0.000000e+00 9.152542e-01 0.000000e+00
 0.000000e+00 8.983051e-01 0.000000e+00
 0.000000e+00 8.813559e-01 0.000000e+00
 0.000000e+00 8.644068e-01 0.000000e+00
 0.000000e+00 8.474576e-01 0.000000e+00
 0.000000e+00 8.305085e-01 0.000000e+00
 0.000000e+00 8.135593e-01 0.000000e+00
 0.000000e+00 7.966102e-01 0.000000e+00
 0.000000e+00 7.796610e-01 0.000000e+00
 0.000000e+00 7.627119e-01 0.000000e+00
 0.000000e+00 7.457627e-01 0.000000e+00
 0.000000e+00 7.288136e-01 0.000000e+00
 0.000000e+00 7.118644e-01 0.000000e+00
 0.000000e+00 6.949153e-01 0.000000e+00
 0.000000e+00 6.779661e-01 0.000000e+00
 0.000000e+00 6.610169e-01 0.000000e+00
 0.000000e+00 6.440678e-01 0.000000e+00
 0.000000e+00 6.271186e-01 0.000000e+00
 0.000000e+00 6.101695e-01 0.000000e+00
 0.000000e+00 5.932203e-01 0.000000e+00
 0.000000e+00 5.762712e-01 0.000000e+00
 0.000000e+00 5.593220e-01 0.000000e+00
 0.000000e+00 5.423729e-01 0.000000e+00
 0.000000e+00 5.254237e-01 0.000000e+00
 0.000000e+00 5.084746e-01 0.000000e+00
 0.000000e+00 4.915254e-01 0.000000e+00
 0.000000e+00 4.745763e-01 0.000000e+00
 0.000000e+00 4.576271e-01 0.000000e+00
 0.000000e+00 4.406780e-01 0.000000e+00
 0.000000e+00 4.237288e-01 0.000000e+00
 0.000000e+00 4.067797e-01 0.000000e+00
 0.000000e+00 3.898305e-01 0.000000e+00
 0.000000e+00 3.728814e-01 0.000000e+00
 0.000000e+00 3.559322e-01 0.000000e+00
 0.000000e+00 3.389831e-01 0.000000e+00
 0.000000e+00 3.220339e-01 0.000000e+00
 0.000000e+00 3.050847e-01 0.000000e+00
 0.000000e+00 2.881356e-01 0.000000e+00
 0.000000e+00 2.711864e-01 0.000000e+00
 0.000000e+00 2.542373e-01 0.000000e+00
 0.000000e+00 2.372881e-01 0.000000e+00
 0.000000e+00 2.203390e-01 0.000000e+00
 0.000000e+00 2.033898e-01 0.000000e+00
 0.000000e+00 1.864407e-01 0.000000e+00
 0.000000e+00 1.694915e-01 0.000000e+00
 0.000000e+00 1.525424e-01 0.000000e+00
 0.000000e+00 1.355932e-01 0.000000e+00
 0.000000e+00 1.186441e-01 0.000000e+00
 0.000000e+00 1.016949e-01 0.000000e+00
 0.000000e+00 8.474576e-02 0.000000e+00
 0.000000e+00 6.779661e-02 0.000000e+00
 0.000000e+00 5.084746e-02 0.000000e+00
 0.000000e+00 3.389831e-02 0.000000e+00
 0.000000e+00 1.694915e-02 0.000000e+00
 5.005028e-01 4.998391e-01 0.000000e+00
 7.071661e-01 2.918712e-01 0.000000e+00
 7.058461e-01 7.075282e-01 0.000000e+00
 2.933884e-01 7.073367e-01 0.000000e+00
 2.938885e-01 2.941144e-01 0.000000e+00
 4.999703e-01 7.791089e-01 0.000000e+00
 5.001569e-01 2.194803e-01 0.000000e+00
 2.181991e-01 4.983680e-01 0.000000e+00
[...]
<PointData Scalars="press" Vectors="vel">
<DataArray Name="press" type="Float64" NumberOfComponents="1" format="ascii">
 2.543083e+06
 2.442006e+06
 -2.456172e+06
 -2.673452e+06
 2.548964e+06
 2.537185e+06
 2.542899e+06
 2.532030e+06
 2.535520e+06
 2.534430e+06
 2.525696e+06
 2.522470e+06
 2.519310e+06
 2.517459e+06
 2.512159e+06
 2.508574e+06
 2.503848e+06
 2.500902e+06
 2.489841e+06
 2.494037e+06
 2.484115e+06
 2.476584e+06
 2.472442e+06
 2.460692e+06
 2.446194e+06
 2.427293e+06
 2.400441e+06
 2.391332e+06
 2.402039e+06
 2.417809e+06
 2.433774e+06
 2.449585e+06
 2.461928e+06
 2.474339e+06
 2.484569e+06
 2.497515e+06
 2.497545e+06
 2.507062e+06
 2.515153e+06
 2.514411e+06
 2.517077e+06
 2.516260e+06
 2.516126e+06
 2.512632e+06
 2.510534e+06
 2.509760e+06
 2.508893e+06
 2.507591e+06
 2.506059e+06
 2.498051e+06
 2.502064e+06
 2.501007e+06
 2.501055e+06
 2.497527e+06
 2.496901e+06
 2.496686e+06
 2.502563e+06
 2.502264e+06
 2.495869e+06
 2.496648e+06
 2.476463e+06
 2.459248e+06
 2.420101e+06
 2.362703e+06
 2.283027e+06
 2.197769e+06
 2.110235e+06
 2.021647e+06
 1.932662e+06
 1.844089e+06
 1.755782e+06
 1.668339e+06
 1.581365e+06
 1.495587e+06
 1.410510e+06
 1.326015e+06
 1.241464e+06
 1.157265e+06
 1.072803e+06
 9.884182e+05
 9.036773e+05
 8.186962e+05
 7.335361e+05
 6.479357e+05
 5.623157e+05
 4.761602e+05
 3.900279e+05
 3.034137e+05
 2.168676e+05
 1.299631e+05
 4.298714e+04
 -4.390923e+04
 -1.310484e+05
 -2.180271e+05
 -3.050382e+05
 -3.919909e+05
 -4.790739e+05
 -5.659750e+05
 -6.527259e+05
 -7.399082e+05
 -8.265694e+05
 -9.134271e+05
 -1.000028e+06
 -1.086550e+06
 -1.172981e+06
 -1.259247e+06
 -1.345206e+06
 -1.431097e+06
 -1.516653e+06
 -1.601834e+06
 -1.686738e+06
 -1.770584e+06
 -1.853526e+06
 -1.934624e+06
 -2.013490e+06
 -2.089781e+06
 -2.163119e+06
 -2.232518e+06
 -2.301359e+06
 -2.362151e+06
 -2.450733e+06
 -2.465340e+06
 -2.462219e+06
 -2.477530e+06
 -2.477785e+06
 -2.482227e+06
 -2.494907e+06
 -2.501781e+06
 -2.507373e+06
 -2.511061e+06
 -2.516721e+06
 -2.520568e+06
 -2.528408e+06
 -2.521958e+06
 -2.522371e+06
 -2.524046e+06
 -2.526805e+06
 -2.531683e+06
 -2.535431e+06
 -2.538137e+06
 -2.543631e+06
 -2.546499e+06
 -2.551261e+06
 -2.553207e+06
 -2.555610e+06
 -2.557226e+06
 -2.559507e+06
 -2.559068e+06
 -2.564068e+06
 -2.566593e+06
 -2.568947e+06
 -2.572812e+06
 -2.574094e+06
 -2.570396e+06
 -2.567714e+06
 -2.569522e+06
 -2.561319e+06
 -2.558824e+06
 -2.558830e+06
 -2.556342e+06
 -2.559267e+06
 -2.557520e+06
 -2.553003e+06
 -2.561057e+06
 -2.554603e+06
 -2.555798e+06
 -2.555385e+06
 -2.556655e+06
 -2.556882e+06
 -2.561551e+06
 -2.565086e+06
 -2.570116e+06
 -2.571715e+06
 -2.582059e+06
 -2.598845e+06
 -2.608871e+06
 -2.635325e+06
 -2.656494e+06
 -2.523613e+06
 -2.403923e+06
 -2.310583e+06
 -2.224084e+06
 -2.141917e+06
 -2.062383e+06
 -1.981437e+06
 -1.897310e+06
 -1.811460e+06
 -1.718020e+06
 -1.622256e+06
 -1.522479e+06
 -1.424140e+06
 -1.327841e+06
 -1.235672e+06
 -1.146253e+06
 -1.059732e+06
 -9.750272e+05
 -8.919823e+05
 -8.097102e+05
 -7.271557e+05
 -6.437619e+05
 -5.576044e+05
 -4.686342e+05
 -3.764568e+05
 -2.822689e+05
 -1.884016e+05
 -9.842447e+04
 -1.249233e+04
 7.190533e+04
 1.562869e+05
 2.408290e+05
 3.257196e+05
 4.108368e+05
 4.960314e+05
 5.812762e+05
 6.664612e+05
 7.513222e+05
 8.360231e+05
 9.203033e+05
 1.004330e+06
 1.088125e+06
 1.171685e+06
 1.255217e+06
 1.338722e+06
 1.422274e+06
 1.505986e+06
 1.589911e+06
 1.674084e+06
 1.758742e+06
 1.843930e+06
 1.929951e+06
 2.017124e+06
 2.105629e+06
 2.195819e+06
 2.288553e+06
 2.381795e+06
 2.481037e+06
 -1.108675e+03
 1.055685e+06
 -1.064188e+06
 -1.066494e+06
 1.057544e+06
 -1.411167e+06
 1.418896e+06
 -1.204692e+04
 6.277489e+03
 1.665617e+06
 -1.679846e+06
 1.653900e+06
 -1.666150e+06
 7.077043e+05
 -3.570730e+05
 -3.268872e+05
 7.453665e+05
 -1.747479e+06
 7.241092e+05
 -7.022106e+05
 -1.758752e+06
 -7.201281e+05
 1.755724e+06
 1.734682e+06
 4.096332e+05
 -7.050354e+05
 3.163740e+05
 1.000179e+06
 -1.004603e+06
 -1.964419e+06
 1.823325e+05
 1.959093e+06
 -1.875109e+05
 -1.123592e+06
 5.436729e+05
 1.973863e+06
 -1.228051e+06
 1.212849e+06
 -1.989595e+06
 -1.984506e+06
 -1.239648e+06
 1.981854e+06
 1.226857e+06
 -5.332207e+05
 -5.255861e+05
 1.230399e+06
 4.840705e+05
 -2.032665e+06
 2.014633e+06
 2.019363e+06
 -2.058557e+06
 5.983245e+05
 2.024786e+06
 -2.039911e+06
 -3.037583e+05
 3.157047e+05
 1.495687e+06
 1.225176e+06
 -1.502264e+06
 -1.514615e+06
 1.127439e+06
 -1.135822e+06
 1.531231e+06
 -1.145754e+06
 5.938512e+04
 -3.879456e+05
 2.640219e+05
 6.757147e+03
 9.779769e+05
 7.329670e+05
 1.334030e+06
 -7.642835e+05
 -1.322664e+06
 -2.131887e+06
 -2.119438e+06
 1.603069e+06
 1.615101e+06
 2.106187e+06
 2.109501e+06
 -1.618352e+06
 -1.648870e+06
 -7.549685e+05
 -6.818313e+04
 -5.537032e+05
 2.134608e+06
 -2.114658e+06
 5.760153e+05
 -2.962877e+05
 2.139735e+06
 -8.247913e+05
 -2.128734e+06
 8.411888e+05
 -1.361710e+06
 -1.503880e+06
 -1.640843e+06
 -3.428220e+05
 3.375108e+05
 1.633249e+06
 1.536648e+06
 3.630516e+05
 -3.603158e+05
 7.843271e+05
 8.847348e+05
 -1.063766e+06
 1.404265e+06
 -9.247865e+05
 2.161409e+06
 -2.180660e+06
 9.253168e+05
 -1.031322e+05
 2.573540e+05
 -5.770476e+05
 -8.631199e+05
 -7.313762e+05
 -1.306735e+06
 -2.169171e+05
 -8.737221e+05
 6.644560e+05
 2.196125e+06
 -2.198761e+06
 -9.472385e+03
 2.976745e+04
 -5.837158e+05
 -3.161734e+04
 2.163630e+04
 1.723392e+06
 -1.724672e+06
 1.254298e+06
 -1.752812e+06
 1.726877e+06
 1.046156e+06
 -1.741353e+06
 -1.386572e+06
 1.719043e+06
 -1.372975e+06
 1.355101e+06
 8.996639e+05
 1.198762e+06
 1.025281e+06
 -2.219878e+06
 5.578392e+05
 -5.495169e+05
 2.224311e+06
 4.961793e+05
 8.042468e+03
 -5.440306e+05
 1.921371e+05
 2.761236e+05
 2.239380e+06
 -2.214339e+06
 -2.276636e+06
 2.237727e+06
 -1.188195e+06
 1.892322e+05
 3.617581e+05
 3.002327e+05
 -2.813536e+05
 2.233734e+06
 -2.233009e+06
 1.739221e+06
 -1.740445e+06
 1.378419e+06
 -1.755511e+06
 2.235432e+06
 -1.363456e+06
 -2.231821e+06
 -2.236061e+06
 -1.369756e+06
 1.361789e+06
 2.234606e+06
 1.342672e+06
 -1.807355e+06
 1.002326e+06
 -1.011147e+06
 1.791245e+06
 -9.983598e+05
 -5.177622e+05
 -1.041664e+06
 1.821749e+06
 -8.758887e+05
 7.828136e+05
 -2.277792e+05
 4.518213e+05
 -1.056688e+06
 -2.238477e+06
 -2.263096e+06
 -1.868269e+06
 1.843422e+06
 -1.901892e+06
 1.843149e+06
 2.248595e+06
 2.252221e+06
 7.071179e+05
 -5.800879e+05
 5.493733e+05
 9.628314e+05
 1.499514e+06
 -4.565464e+05
 -7.764820e+05
 -1.322160e+06
 1.225209e+06
 -1.237886e+06
 1.281150e+06
 -1.239122e+06
 -6.137882e+05
 1.295130e+05
 1.047351e+06
 1.078748e+06
 -2.253483e+06
 2.263426e+06
 -1.061087e+06
 -1.908271e+06
 1.895028e+06
 1.903241e+06
 -1.926083e+06
 -7.804877e+05
 5.813231e+05
 1.470109e+06
 -1.479565e+06
 1.483586e+06
 -1.492957e+06
 -2.509468e+05
 7.917991e+05
 7.942791e+05
 -1.539545e+06
 1.950666e+06
 -1.955120e+06
 -5.565357e+05
 5.697662e+05
 1.549640e+06
 -3.387920e+05
 3.939794e+05
 1.315424e+06
 -2.173589e+05
 -1.545080e+06
 6.817476e+05
 4.789086e+05
 8.786307e+05
 -1.905990e+05
 -8.811225e+05
 -8.819745e+05
 5.907293e+04
 -2.266503e+06
 2.280449e+06
 -2.495016e+05
 2.714071e+05
 -1.542193e+06
 1.530174e+06
 -1.565527e+06
 1.875095e+06
 -1.970759e+06
 -6.586856e+04
 1.961957e+06
 7.261256e+04
 -1.680315e+06
 -9.673374e+04
 3.585270e+05
 -1.941182e+06
 9.060799e+05
 1.394439e+06
 -4.921875e+05
 9.273037e+05
 -7.558337e+05
 1.990043e+06
 -9.668196e+04
 1.698978e+06
 -1.329703e+06
 -2.290988e+06
 1.132144e+06
 1.232034e+06
 -1.119444e+06
 2.282288e+06
 -1.534085e+06
 2.129203e+05
 -3.470927e+05
 1.540558e+06
 1.580219e+06
 2.454571e+05
 7.247618e+05
 -2.294163e+06
 -7.181996e+05
 2.289221e+06
 -3.132750e+05
 5.992797e+05
 -1.898710e+06
 -1.909615e+06
 1.889467e+06
 1.275771e+06
 -1.210597e+06
 1.064811e+06
 1.804369e+06
 1.792888e+06
 -1.826144e+06
 -5.399892e+05
 -1.802928e+06
 -7.976452e+05
 1.956320e+06
 -1.888738e+06
 -8.866499e+05
 -1.593722e+06
 -1.839614e+05
 1.199804e+06
 1.020546e+06
 7.625607e+05
 -9.046586e+05
 2.320781e+06
 -2.323738e+06
 1.536559e+06
 1.548809e+06
 -2.302131e+06
 2.327477e+06
 -1.592705e+06
 -1.566264e+06
 1.404383e+05
 3.628384e+04
 -1.315378e+06
 1.954384e+05
 1.038062e+06
 -4.042757e+05
 -1.393095e+05
 7.457004e+05
 -7.311988e+05
 -2.302308e+06
 2.327184e+06
 1.430850e+06
 -8.230073e+05
 8.382927e+05
 2.492151e+05
 -2.433414e+05
 1.826155e+06
 -1.841750e+06
 6.202439e+05
 -5.250516e+05
 4.889100e+05
 -2.306396e+06
 -4.751846e+05
 2.301922e+06
 -1.735755e+05
 -7.309106e+03
 -1.761642e+06
 1.747097e+06
 -5.054489e+05
 5.146336e+05
 -1.389657e+06
 1.230899e+06
 -1.414734e+06
 -1.453478e+06
 1.403967e+06
 -4.054344e+05
 8.326912e+05
 -2.043634e+06
 2.033498e+06
 -2.050218e+06
 1.997228e+05
 2.038032e+06
 -5.584451e+05
 2.342018e+06
 -1.483467e+06
 2.345617e+06
 -2.039940e+06
 -2.002079e+06
 -1.929215e+06
 -2.094364e+06
 -2.298257e+06
 -2.347327e+06
 -1.016013e+06
 1.994091e+06
 2.052660e+06
 -9.481854e+05
 2.044240e+06
 -1.240247e+06
 -9.349303e+05
 6.881299e+05
 2.004765e+06
 1.528881e+06
 -1.310346e+06
 3.911271e+05
 -9.742480e+05
 9.960424e+05
 8.827918e+05
 -8.849552e+05
 -3.635350e+05
 -8.250759e+05
 -1.467066e+05
 1.471257e+05
 1.548967e+06
 1.930201e+06
 -2.038910e+06
 1.438757e+06
 4.085623e+05
 7.632640e+05
 -2.338464e+05
 -1.172738e+06
 9.549424e+05
 8.642731e+05
 4.982090e+05
 -1.051939e+06
 -1.195494e+06
 -1.696820e+05
 -1.059878e+06
 -5.365084e+05
 5.161943e+05
 7.216329e+05
 -2.074503e+06
 -2.317308e+06
 -1.137323e+05
 2.328060e+06
 1.260419e+05
 1.586376e+06
 -3.967356e+05
 1.138827e+06
 1.055094e+05
 3.724741e+05
 -1.312691e+06
 1.452782e+06
 -1.192106e+06
 -1.175726e+06
 1.789540e+06
 1.164802e+06
 -1.130282e+06
 -1.303308e+06
 1.293025e+06
 -1.707539e+06
 1.784480e+06
 -1.687850e+06
 1.210942e+06
 1.952251e+06
 -2.032742e+06
 1.049100e+06
 6.880321e+04
 1.942522e+05
 1.153748e+06
 -5.664613e+05
 5.709254e+05
 -1.514169e+06
 1.115337e+06
 -6.804243e+05
 5.583144e+05
 -1.564596e+06
 -9.617698e+05
 2.351871e+06
 9.672032e+05
 -2.341195e+06
 9.071995e+05
 -3.566676e+05
 2.367737e+06
 -2.333418e+06
 9.184070e+05
 -9.021334e+05
 -1.479660e+06
 7.519183e+05
 1.078569e+06
 1.582762e+06
 -7.123829e+05
 -2.075225e+06
 2.071207e+06
 -2.091872e+06
 2.081314e+06
 2.131514e+06
 1.480799e+05
 -2.139707e+06
 -1.349803e+05
 -1.056415e+06
 -1.802060e+05
 -6.995660e+05
 1.378525e+06
 8.343987e+05
 -2.183725e+05
 4.300377e+05
 -2.338272e+06
 -4.289908e+05
 2.362469e+06
 2.154910e+05
 -7.154780e+05
 4.334655e+05
 6.355135e+05
 1.723177e+06
 1.715792e+06
 -2.367835e+06
 2.370945e+06
 -1.778033e+06
 -1.714564e+06
 -2.336441e+06
 1.705563e+06
 2.379926e+06
 -1.736380e+06
 -1.737665e+06
 3.209650e+05
 -1.649903e+06
 -9.236422e+05
 2.368235e+06
 1.221112e+06
 -2.332137e+06
 -1.211698e+06
 1.407381e+06
 -1.591627e+06
 -7.103933e+05
 1.739111e+06
 -2.307312e+06
 -2.391305e+06
 2.369737e+06
 2.381201e+06
 1.989087e+05
 -6.681755e+05
 6.709920e+05
 -2.085691e+06
 2.099002e+06
 -8.425865e+05
 2.111077e+06
 -1.134070e+06
 1.182889e+05
 2.362895e+06
 -9.621701e+04
 1.668156e+06
 -2.337565e+06
 -9.384211e+05
 1.885328e+06
 8.773670e+05
 -1.356357e+06
 -1.384970e+06
 1.347935e+06
 -6.643615e+05
 -6.220588e+05
 -2.157561e+06
 6.132163e+05
 1.210558e+06
 -6.120860e+05
 -1.211756e+06
 -2.158138e+06
 2.150979e+06
 1.204372e+06
 1.504459e+05
 -8.428296e+05
 1.853372e+06
 -3.658236e+05
 1.578941e+04
 1.082897e+06
 -3.991890e+05
 4.081368e+05
 1.883172e+06
 -1.904161e+06
 -1.230026e+06
 4.477795e+05
 -6.036128e+05
 7.099043e+05
 6.202394e+05
 -1.178839e+06
 -1.806559e+06
 -6.744073e+05
 5.062537e+05
 -1.379348e+06
 7.549999e+05
 2.136105e+06
 -2.144380e+06
 -1.686093e+05
 1.857494e+05
 4.091297e+04
 -7.767295e+05
 1.381478e+06
 -7.217263e+05
 -2.168691e+06
 -3.840308e+05
 3.919260e+05
 2.183550e+06
 -1.644931e+06
 1.507820e+06
 -1.502775e+06
 3.649156e+05
 1.633094e+06
 -1.535390e+06
 2.102188e+05
 -3.622759e+05
 4.962405e+05
 -1.894403e+06
 1.781810e+06
 -3.690755e+05
 9.297595e+05
 1.628297e+06
 1.571661e+06
 -1.631286e+06
 -1.580811e+06
 1.364219e+06
 1.512975e+06
 -1.650936e+06
 -1.594477e+06
 7.296838e+05
 1.474773e+05
 1.262996e+06
 -2.164913e+06
 2.076505e+06
 -2.362023e+06
 -1.269017e+06
 2.079334e+06
 -2.203972e+06
 -1.211159e+06
 2.371843e+06
 -1.695352e+06
 1.057259e+06
 1.629610e+06
 1.815980e+06
 2.115799e+06
 -1.365017e+06
 -4.631954e+05
 -1.924158e+06
 4.024705e+04
 -5.363840e+04
 1.884513e+06
 -8.826062e+05
 -1.913041e+06
 -1.905666e+06
 1.633369e+06
 1.157253e+06
 -1.842853e+06
 -3.710796e+05
 6.322929e+05
 4.089583e+05
 -4.240012e+05
 1.372030e+06
 -4.555057e+05
 -2.351602e+06
 2.386372e+06
 -5.950570e+05
 6.016573e+05
 -2.007451e+06
 6.488047e+05
 2.175362e+06
 -2.040591e+06
 -8.321657e+04
 2.176409e+06
 -7.167773e+05
 2.142599e+06
 -1.778115e+06
 8.973711e+05
 1.131198e+06
 1.644222e+06
 -1.302436e+05
 1.373757e+06
 -7.443916e+05
 -1.389114e+06
 1.327756e+06
 -1.385436e+06
 -1.603498e+06
 6.453887e+05
 1.192554e+05
 1.356014e+06
 -1.835495e+06
 8.569498e+05
 3.786960e+05
 1.702382e+06
 8.668195e+05
 1.013540e+06
 -1.206512e+06
 1.217633e+06
 1.092883e+06
 1.835295e+06
 -3.941921e+05
 -1.073161e+06
 -1.025437e+06
 -8.529146e+05
 -1.025873e+06
 -5.060262e+05
 -1.402408e+06
 -1.934201e+05
 1.195858e+06
 5.353967e+05
 -6.448050e+05
 3.518925e+05
 -9.658992e+03
 -2.362738e+06
 2.356164e+06
 -2.347629e+06
 -3.246239e+05
 2.381690e+06
 1.403577e+06
 6.389475e+04
 1.417112e+06
 -1.424554e+06
 -2.371703e+06
 -1.430823e+06
 1.378773e+06
 2.392965e+06
 3.695545e+05
 1.131648e+06
 -1.143716e+06
 -1.152822e+06
 2.834029e+05
 -7.216526e+05
 1.757990e+06
 -1.796510e+06
 -1.765523e+06
 1.751590e+06
 2.403284e+06
 -1.195115e+05
 2.399374e+06
 2.197199e+06
 -2.405792e+06
 -2.225352e+06
 -2.336828e+06
 2.198376e+06
 -2.171933e+06
 1.088357e+06
 5.193694e+05
 -2.275285e+05
 -6.837252e+05
 -1.188606e+06
 -1.200559e+05
 -2.152476e+06
 1.260184e+06
 1.399913e+06
 2.981361e+05
 3.677809e+05
 -1.271284e+06
 -5.422528e+05
 -1.286937e+06
 -1.039447e+06
 -9.089534e+05
 1.389404e+04
 -7.912665e+05
 1.373540e+06
 1.516975e+06
 2.161156e+06
 6.172168e+05
 1.645810e+06
 -6.931635e+05
 1.358213e+06
 8.538640e+05
 1.184329e+06
 -1.832295e+05
 1.694414e+06
 -1.276477e+06
 1.790064e+05
 2.110162e+06
 -6.119688e+05
 4.284950e+05
 -6.851536e+05
 7.009380e+05
 1.469032e+06
 7.521535e+05
 2.396871e+06
 -2.390593e+06
 1.477158e+06
 -1.913449e+06
 9.855147e+05
 1.646358e+06
 1.907566e+06
 -1.685353e+06
 2.709387e+04
 -2.347767e+06
 1.900516e+06
 -1.955538e+06
 -1.664048e+06
 2.188417e+06
 2.402797e+06
 -1.498521e+06
 -2.199028e+06
 -2.189263e+06
 -1.089548e+06
 -1.531226e+06
 1.814026e+06
 2.185216e+06
 -2.321625e+04
 1.480212e+06
 -1.438192e+06
 9.182030e+05
 -1.003478e+05
 1.967914e+06
 1.896408e+06
 6.510838e+05
 1.903374e+06
 9.043063e+05
 -9.967929e+05
 -9.902014e+05
 -2.216896e+06
 -2.238282e+06
 2.222173e+06
 1.256359e+06
 -1.665029e+06
 2.216202e+06
 -1.831882e+06
 -1.781684e+06
 2.581316e+05
 4.307069e+05
 -1.302366e+06
 -1.066261e+05
 8.385041e+05
 7.733511e+05
 -6.007175e+05
 2.358548e+06
 1.799826e+06
 -1.827068e+06
 -1.811541e+06
 -2.372591e+06
 1.799053e+06
 6.218937e+05
 1.578557e+06
 -7.498565e+05
 -1.087194e+06
 -1.894666e+06
 -4.258760e+05
 1.066643e+06
 -1.042606e+06
 -3.732510e+05
 -1.898793e+06
 -8.845772e+05
 1.319539e+06
 1.669525e+06
 -2.096954e+06
 -5.887480e+05
 -2.074435e+05
 5.040574e+05
 -1.068991e+06
 -1.548061e+06
 -3.732426e+05
 -3.059872e+05
 -2.653740e+05
 1.618053e+06
 -2.049488e+05
 -4.645400e+05
 2.187003e+05
 6.424598e+05
 9.773982e+05
 -9.539105e+05
 -4.765573e+05
 -1.987566e+06
 -1.992146e+06
 1.974192e+06
 -2.171471e+06
 1.069871e+06
 1.927993e+06
 1.920290e+06
 -1.929112e+06
 -1.949414e+06
 -1.138569e+06
 -5.146755e+05
 7.790464e+05
 6.092159e+05
 -1.460376e+06
 2.044810e+06
 -2.085544e+06
 1.256491e+06
 -5.028995e+05
 2.094481e+06
 4.620746e+05
 -9.671965e+05
 2.777200e+05
 -2.870993e+05
 -1.632512e+06
 -1.897996e+06
 -1.924919e+06
 2.009678e+06
 -2.018592e+06
 5.836233e+04
 -2.170331e+06
 -5.495078e+04
 1.479401e+06
 1.562647e+06
 1.183592e+04
 -4.584998e+05
 1.052251e+06
 2.406576e+06
 -1.542101e+06
 1.522911e+06
 -2.378471e+06
 -1.034286e+06
 -8.159843e+05
 3.448033e+05
 -2.362771e+06
 2.380743e+06
 8.258861e+05
 -5.451899e+05
 1.669672e+06
 1.513275e+06
 -9.179530e+05
 -1.415366e+06
 1.856726e+06
 5.332647e+05
 1.024080e+06
 -8.851967e+05
 2.034401e+06
 -1.719869e+06
 3.466261e+05
 1.665955e+06
 -1.686878e+06
 1.675190e+06
 -1.347173e+06
 -6.993219e+04
 -1.670068e+06
 1.864704e+06
 -1.172642e+06
 1.393339e+06
 1.898677e+06
 -1.836748e+06
 1.149074e+06
 -8.093427e+05
 1.825227e+06
 -1.106182e+05
 1.008931e+06
 1.124904e+05
 -2.187818e+06
 -1.491505e+06
 -9.317065e+05
 -2.156674e+06
 4.313913e+05
 -1.181158e+06
 2.814702e+05
 1.189885e+05
 9.234009e+05
 -1.620457e+06
 9.657291e+05
 -1.772957e+06
 -3.630011e+05
 1.758584e+06
 -1.928378e+05
 3.667076e+05
 -5.992570e+05
 6.092261e+05
 2.240741e+06
 -2.250691e+06
 3.991969e+05
 -2.435392e+05
 1.286221e+06
 -1.187273e+06
 1.753757e+06
 -9.110027e+05
 -1.759602e+06
 1.268565e+06
 -1.775543e+06
 8.518026e+05
 -1.193882e+06
 -9.240896e+04
 -2.998497e+05
 1.166319e+05
 -9.137236e+04
 1.784721e+06
 1.466291e+06
 -1.576081e+06
 1.333424e+05
 -1.498558e+06
 6.171382e+05
 -1.965865e+06
 1.877883e+06
 -2.020105e+05
 2.113049e+05
 9.870004e+05
 1.961623e+06
 7.382776e+05
 1.515515e+06
 1.667197e+06
 2.018255e+06
 1.283183e+06
 -2.000268e+06
 -1.632640e+06
 -4.540876e+05
 1.714068e+06
 2.393665e+06
 -1.051928e+06
 -2.380385e+06
 3.615651e+04
 -1.351373e+06
 8.811947e+05
 -1.268786e+06
 -1.169677e+04
 -1.289342e+06
 -1.849681e+06
 1.255920e+06
 -4.848159e+05
 -9.579752e+05
 -2.137588e+03
 9.729220e+05
 -1.452881e+06
 3.413648e+05
 7.896861e+05
 1.341113e+06
 -3.924362e+05
 2.613981e+05
 -2.389514e+06
 2.419218e+06
 -2.927198e+05
 -1.806754e+06
 1.315756e+06
 -2.212138e+06
 -1.414557e+06
 1.054322e+05
 8.979488e+05
 -2.382219e+06
 1.059640e+06
 -1.397695e+06
 -1.056916e+06
 1.387748e+06
 2.393348e+06
 2.223349e+06
 -9.465218e+05
 1.155799e+06
 1.528427e+06
 3.588527e+05
 -1.569564e+06
 -1.542535e+06
 -7.520303e+05
 7.652244e+05
 2.013287e+06
 6.829533e+05
 -2.808305e+05
 -2.015477e+06
 -2.023586e+06
 2.004359e+06
 -6.525040e+05
 1.668346e+06
 -6.441294e+04
 2.097007e+06
 1.152805e+05
 3.887845e+05
 2.093891e+06
 2.259872e+06
 8.530202e+05
 2.605128e+05
 -8.433889e+05
 2.252662e+05
 1.204592e+06
 -1.867043e+06
 9.649372e+05
 -2.061492e+06
 -2.389590e+05
 2.612190e+05
 -5.126232e+05
 1.633311e+06
 -1.232549e+06
 2.229529e+06
 1.545959e+06
 1.023959e+06
 -1.036393e+06
 2.223512e+06
 2.202682e+06
 1.636832e+06
 2.222847e+06
 -2.113090e+06
 -2.136059e+06
 -2.086629e+06
 -1.914862e+06
 -6.695702e+04
 2.078485e+06
 8.141121e+04
 1.163900e+06
 -6.753489e+04
 -1.436391e+06
 1.963873e+06
 1.988153e+06
 4.850207e+05
 1.606127e+06
 -2.233984e+06
 7.012735e+05
 -1.636562e+06
 8.451151e+05
 -8.288714e+05
 2.381942e+06
 2.408700e+05
 2.031336e+06
 1.070468e+06
 -2.383934e+06
 -2.244430e+05
 -2.097830e+05
 -1.938842e+05
 -2.078154e+05
 9.506795e+05
 -1.279429e+06
 -6.451915e+05
 -2.853631e+05
 5.134946e+05
 1.273539e+06
 -1.406679e+06
 -2.088069e+06
 7.567521e+04
 -2.074183e+06
 -9.523940e+05
 9.478696e+05
 2.238909e+05
 -3.943685e+04
 2.001991e+06
 -8.082598e+05
 5.173317e+05
 7.466654e+05
 -2.140107e+06
 -8.070451e+05
 6.793132e+05
 -6.672634e+05
 9.890046e+05
 -1.258229e+06
 -2.221015e+06
 -1.346487e+06
 2.219521e+06
 1.293592e+06
 1.101142e+06
 1.106483e+06
 -1.086915e+06
 -2.137588e+06
 2.128394e+06
 -1.466043e+06
 -1.293518e+06
 1.288595e+06
 1.165457e+06
 2.433753e+06
 6.075162e+05
 -8.147187e+05
 -2.382312e+06
 8.258493e+05
 2.501194e+05
 -5.179903e+05
 1.702335e+06
 -1.406254e+06
 -1.636020e+06
 -1.021471e+06
 -3.441937e+05
 -8.782447e+05
 1.457523e+06
 8.979425e+05
 -1.310768e+06
 7.113161e+05
 -2.138160e+06
 -7.306989e+05
 -3.105807e+05
 -1.463608e+06
 5.903548e+05
 -6.102106e+05
 -2.036904e+06
 1.121506e+06
 -1.671456e+06
 -2.410022e+06
 1.618837e+06
 -2.375722e+06
 2.433186e+06
 1.610108e+06
 2.439499e+06
 -1.632083e+06
 -2.344920e+05
 -1.665976e+06
 1.863852e+06