<?xml version="1.0"?>
<VTKFile type="UnstructuredGrid" version="0.1">
<UnstructuredGrid>
<Piece NumberOfPoints="2601" NumberOfCells="2500">
<Points>
<DataArray NumberOfComponents="3" type="Float64" format="ascii">
 0.000000e+00 0.000000e+00 0.000000e+00
 2.000000e+00 0.000000e+00 0.000000e+00
 4.000000e+00 0.000000e+00 0.000000e+00
 6.000000e+00 0.000000e+00 0.000000e+00
 8.000000e+00 0.000000e+00 0.000000e+00
 1.000000e+01 0.000000e+00 0.000000e+00
 1.200000e+01 0.000000e+00 0.000000e+00
 1.400000e+01 0.000000e+00 0.000000e+00
 1.600000e+01 0.000000e+00 0.000000e+00
 1.800000e+01 0.000000e+00 0.000000e+00
 2.000000e+01 0.000000e+00 0.000000e+00
 2.200000e+01 0.000000e+00 0.000000e+00
 2.400000e+01 0.000000e+00 0.000000e+00
 2.600000e+01 0.000000e+00 0.000000e+00
 2.800000e+01 0.000000e+00 0.000000e+00
 3.000000e+01 0.000000e+00 0.000000e+00
 3.200000e+01 0.000000e+00 0.000000e+00
 3.400000e+01 0.000000e+00 0.000000e+00
 3.600000e+01 0.000000e+00 0.000000e+00
 3.800000e+01 0.000000e+00 0.000000e+00
 4.000000e+01 0.000000e+00 0.000000e+00
 4.200000e+01 0.000000e+00 0.000000e+00
 4.400000e+01 0.000000e+00 0.000000e+00
 4.600000e+01 0.000000e+00 0.000000e+00
 4.800000e+01 0.000000e+00 0.000000e+00
 5.000000e+01 0.000000e+00 0.000000e+00
 5.200000e+01 0.000000e+00 0.000000e+00
 5.400000e+01 0.000000e+00 0.000000e+00
 5.600000e+01 0.000000e+00 0.000000e+00
 5.800000e+01 0.000000e+00 0.000000e+00
 6.000000e+01 0.000000e+00 0.000000e+00
 6.200000e+01 0.000000e+00 0.000000e+00
 6.400000e+01 0.000000e+00 0.000000e+00
 6.600000e+01 0.000000e+00 0.000000e+00
 6.800000e+01 0.000000e+00 0.000000e+00
 7.000000e+01 0.000000e+00 0.000000e+00
 7.200000e+01 0.000000e+00 0.000000e+00
 7.400000e+01 0.000000e+00 0.000000e+00
 7.600000e+01 0.000000e+00 0.000000e+00
 7.800000e+01 0.000000e+00 0.000000e+00
 8.000000e+01 0.000000e+00 0.000000e+00
 8.200000e+01 0.000000e+00 0.000000e+00
 8.400000e+01 0.000000e+00 0.000000e+00
 8.600000e+01 0.000000e+00 0.000000e+00
 8.800000e+01 0.000000e+00 0.000000e+00
 9.000000e+01 0.000000e+00 0.000000e+00
 9.200000e+01 0.000000e+00 0.000000e+00
 9.400000e+01 0.000000e+00 0.000000e+00
 9.600000e+01 0.000000e+00 0.000000e+00
 9.800000e+01 0.000000e+00 0.000000e+00
 1.000000e+02 0.000000e+00 0.000000e+00
 0.000000e+00 2.000000e+00 0.000000e+00
 2.000000e+00 2.000000e+00 0.000000e+00
 4.000000e+00 2.000000e+00 0.000000e+00
 6.000000e+00 2.000000e+00 0.000000e+00
 8.000000e+00 2.000000e+00 0.000000e+00
 1.000000e+01 2.000000e+00 0.000000e+00
 1.200000e+01 2.000000e+00 0.000000e+00
 1.400000e+01 2.000000e+00 0.000000e+00
 1.600000e+01 2.000000e+00 0.000000e+00
 1.800000e+01 2.000000e+00 0.000000e+00
 2.000000e+01 2.000000e+00 0.000000e+00
 2.200000e+01 2.000000e+00 0.000000e+00
 2.400000e+01 2.000000e+00 0.000000e+00
 2.600000e+01 2.000000e+00 0.000000e+00
 2.800000e+01 2.000000e+00 0.000000e+00
 3.000000e+01 2.000000e+00 0.000000e+00
 3.200000e+01 2.000000e+00 0.000000e+00
 3.400000e+01 2.000000e+00 0.000000e+00
 3.600000e+01 2.000000e+00 0.000000e+00
 3.800000e+01 2.000000e+00 0.000000e+00
 4.000000e+01 2.000000e+00 0.000000e+00
 4.200000e+01 2.000000e+00 0.000000e+00
 4.400000e+01 2.000000e+00 0.000000e+00
 4.600000e+01 2.000000e+00 0.000000e+00
 4.800000e+01 2.000000e+00 0.000000e+00
 5.000000e+01 2.000000e+00 0.000000e+00
 5.200000e+01 2.000000e+00 0.000000e+00
 5.400000e+01 2.000000e+00 0.000000e+00
 5.600000e+01 2.000000e+00 0.000000e+00
 5.800000e+01 2.000000e+00 0.000000e+00
 6.000000e+01 2.000000e+00 0.000000e+00
 6.200000e+01 2.000000e+00 0.000000e+00
 6.400000e+01 2.000000e+00 0.000000e+00
 6.600000e+01 2.000000e+00 0.000000e+00
 6.800000e+01 2.000000e+00 0.000000e+00
 7.000000e+01 2.000000e+00 0.000000e+00
 7.200000e+01 2.000000e+00 0.000000e+00
 7.400000e+01 2.000000e+00 0.000000e+00
 7.600000e+01 2.000000e+00 0.000000e+00
 7.800000e+01 2.000000e+00 0.000000e+00
 8.000000e+01 2.000000e+00 0.000000e+00
 8.200000e+01 2.000000e+00 0.000000e+00
 8.400000e+01 2.000000e+00 0.000000e+00
 8.600000e+01 2.000000e+00 0.000000e+00
 8.800000e+01 2.000000e+00 0.000000e+00
 9.000000e+01 2.000000e+00 0.000000e+00
 9.200000e+01 2.000000e+00 0.000000e+00
 9.400000e+01 2.000000e+00 0.000000e+00
 9.600000e+01 2.000000e+00 0.000000e+00
 9.800000e+01 2.000000e+00 0.000000e+00
 1.000000e+02 2.000000e+00 0.000000e+00
 0.000000e+00 4.000000e+00 0.000000e+00
 2.000000e+00 4.000000e+00 0.000000e+00
 4.000000e+00 4.000000e+00 0.000000e+00
 6.000000e+00 4.000000e+00 0.000000e+00
 8.000000e+00 4.000000e+00 0.000000e+00
 1.000000e+01 4.000000e+00 0.000000e+00
 1.200000e+01 4.000000e+00 0.000000e+00
 1.400000e+01 4.000000e+00 0.000000e+00
 1.600000e+01 4.000000e+00 0.000000e+00
 1.800000e+01 4.000000e+00 0.000000e+00
 2.000000e+01 4.000000e+00 0.000000e+00
 2.200000e+01 4.000000e+00 0.000000e+00
 2.400000e+01 4.000000e+00 0.000000e+00
 2.600000e+01 4.000000e+00 0.000000e+00
 2.800000e+01 4.000000e+00 0.000000e+00
 3.000000e+01 4.000000e+00 0.000000e+00
 3.200000e+01 4.000000e+00 0.000000e+00
 3.400000e+01 4.000000e+00 0.000000e+00
 3.600000e+01 4.000000e+00 0.000000e+00
 3.800000e+01 4.000000e+00 0.000000e+00
 4.000000e+01 4.000000e+00 0.000000e+00
 4.200000e+01 4.000000e+00 0.000000e+00
 4.400000e+01 4.000000e+00 0.000000e+00
 4.600000e+01 4.000000e+00 0.000000e+00
 4.800000e+01 4.000000e+00 0.000000e+00
 5.000000e+01 4.000000e+00 0.000000e+00
 5.200000e+01 4.000000e+00 0.000000e+00
 5.400000e+01 4.000000e+00 0.000000e+00
 5.600000e+01 4.000000e+00 0.000000e+00
 5.800000e+01 4.000000e+00 0.000000e+00
 6.000000e+01 4.000000e+00 0.000000e+00
 6.200000e+01 4.000000e+00 0.000000e+00
 6.400000e+01 4.000000e+00 0.000000e+00
 6.600000e+01 4.000000e+00 0.000000e+00
 6.800000e+01 4.000000e+00 0.000000e+00
 7.000000e+01 4.000000e+00 0.000000e+00
 7.200000e+01 4.000000e+00 0.000000e+00
 7.400000e+01 4.000000e+00 0.000000e+00
 7.600000e+01 4.000000e+00 0.000000e+00
 7.800000e+01 4.000000e+00 0.000000e+00
 8.000000e+01 4.000000e+00 0.000000e+00
 8.200000e+01 4.000000e+00 0.000000e+00
 8.400000e+01 4.000000e+00 0.000000e+00
 8.600000e+01 4.000000e+00 0.000000e+00
 8.800000e+01 4.000000e+00 0.000000e+00
 9.000000e+01 4.000000e+00 0.000000e+00
 9.200000e+01 4.000000e+00 0.000000e+00
 9.400000e+01 4.000000e+00 0.000000e+00
 9.600000e+01 4.000000e+00 0.000000e+00
 9.800000e+01 4.000000e+00 0.000000e+00
 1.000000e+02 4.000000e+00 0.000000e+00
 0.000000e+00 6.000000e+00 0.000000e+00
 2.000000e+00 6.000000e+00 0.000000e+00
 4.000000e+00 6.000000e+00 0.000000e+00
 6.000000e+00 6.000000e+00 0.000000e+00
 8.000000e+00 6.000000e+00 0.000000e+00
 1.000000e+01 6.000000e+00 0.000000e+00
 1.200000e+01 6.000000e+00 0.000000e+00
 1.400000e+01 6.000000e+00 0.000000e+00
 1.600000e+01 6.000000e+00 0.000000e+00
 1.800000e+01 6.000000e+00 0.000000e+00
 2.000000e+01 6.000000e+00 0.000000e+00
 2.200000e+01 6.000000e+00 0.000000e+00
 2.400000e+01 6.000000e+00 0.000000e+00
 2.600000e+01 6.000000e+00 0.000000e+00
 2.800000e+01 6.000000e+00 0.000000e+00
 3.000000e+01 6.000000e+00 0.000000e+00
 3.200000e+01 6.000000e+00 0.000000e+00
 3.400000e+01 6.000000e+00 0.000000e+00
 3.600000e+01 6.000000e+00 0.000000e+00
 3.800000e+01 6.000000e+00 0.000000e+00
 4.000000e+01 6.000000e+00 0.000000e+00
 4.200000e+01 6.000000e+00 0.000000e+00
 4.400000e+01 6.000000e+00 0.000000e+00
 4.600000e+01 6.000000e+00 0.000000e+00
 4.800000e+01 6.000000e+00 0.000000e+00
 5.000000e+01 6.000000e+00 0.000000e+00
 5.200000e+01 6.000000e+00 0.000000e+00
 5.400000e+01 6.000000e+00 0.000000e+00
 5.600000e+01 6.000000e+00 0.000000e+00
 5.800000e+01 6.000000e+00 0.000000e+00
 6.000000e+01 6.000000e+00 0.000000e+00
 6.200000e+01 6.000000e+00 0.000000e+00
 6.400000e+01 6.000000e+00 0.000000e+00
 6.600000e+01 6.000000e+00 0.000000e+00
 6.800000e+01 6.000000e+00 0.000000e+00
 7.000000e+01 6.000000e+00 0.000000e+00
 7.200000e+01 6.000000e+00 0.000000e+00
 7.400000e+01 6.000000e+00 0.000000e+00
 7.600000e+01 6.000000e+00 0.000000e+00
 7.800000e+01 6.000000e+00 0.000000e+00
 8.000000e+01 6.000000e+00 0.000000e+00
 8.200000e+01 6.000000e+00 0.000000e+00
 8.400000e+01 6.000000e+00 0.000000e+00
 8.600000e+01 6.000000e+00 0.000000e+00
 8.800000e+01 6.000000e+00 0.000000e+00
 9.000000e+01 6.000000e+00 0.000000e+00
 9.200000e+01 6.000000e+00 0.000000e+00
 9.400000e+01 6.000000e+00 0.000000e+00
 9.600000e+01 6.000000e+00 0.000000e+00
 9.800000e+01 6.000000e+00 0.000000e+00
 1.000000e+02 6.000000e+00 0.000000e+00
 0.000000e+00 8.000000e+00 0.000000e+00
 2.000000e+00 8.000000e+00 0.000000e+00
 4.000000e+00 8.000000e+00 0.000000e+00
 6.000000e+00 8.000000e+00 0.000000e+00
 8.000000e+00 8.000000e+00 0.000000e+00
 1.000000e+01 8.000000e+00 0.000000e+00
 1.200000e+01 8.000000e+00 0.000000e+00
 1.400000e+01 8.000000e+00 0.000000e+00
 1.600000e+01 8.000000e+00 0.000000e+00
 1.800000e+01 8.000000e+00 0.000000e+00
 2.000000e+01 8.000000e+00 0.000000e+00
 2.200000e+01 8.000000e+00 0.000000e+00
 2.400000e+01 8.000000e+00 0.000000e+00
 2.600000e+01 8.000000e+00 0.000000e+00
 2.800000e+01 8.000000e+00 0.000000e+00
 3.000000e+01 8.000000e+00 0.000000e+00
 3.200000e+01 8.000000e+00 0.000000e+00
 3.400000e+01 8.000000e+00 0.000000e+00
 3.600000e+01 8.000000e+00 0.000000e+00
 3.800000e+01 8.000000e+00 0.000000e+00
 4.000000e+01 8.000000e+00 0.000000e+00
 4.200000e+01 8.000000e+00 0.000000e+00
 4.400000e+01 8.000000e+00 0.000000e+00
 4.600000e+01 8.000000e+00 0.000000e+00
 4.800000e+01 8.000000e+00 0.000000e+00
 5.000000e+01 8.000000e+00 0.000000e+00
 5.200000e+01 8.000000e+00 0.000000e+00
 5.400000e+01 8.000000e+00 0.000000e+00
 5.600000e+01 8.000000e+00 0.000000e+00
 5.800000e+01 8.000000e+00 0.000000e+00
 6.000000e+01 8.000000e+00 0.000000e+00
 6.200000e+01 8.000000e+00 0.000000e+00
 6.400000e+01 8.000000e+00 0.000000e+00
 6.600000e+01 8.000000e+00 0.000000e+00
 6.800000e+01 8.000000e+00 0.000000e+00
 7.000000e+01 8.000000e+00 0.000000e+00
 7.200000e+01 8.000000e+00 0.000000e+00
 7.400000e+01 8.000000e+00 0.000000e+00
 7.600000e+01 8.000000e+00 0.000000e+00
 7.800000e+01 8.000000e+00 0.000000e+00
[...]
<PointData Scalars="talus">
<DataArray Name="talus" type="Float64" NumberOfComponents="1" format="ascii">
 -2.989078e+01
 -2.945792e+01
 -2.835896e+01
 -2.690513e+01
 -2.526804e+01
 -2.354088e+01
 -2.177661e+01
 -2.000845e+01
 -1.826118e+01
 -1.655750e+01
 -1.492175e+01
 -1.338175e+01
 -1.196877e+01
 -1.071518e+01
 -9.649776e+00
 -8.789208e+00
 -8.166164e+00
 -7.734550e+00
 -7.453010e+00
 -7.279310e+00
 -7.176970e+00
 -7.118806e+00
 -7.086531e+00
 -7.068872e+00
 -7.059260e+00
 -7.054028e+00
 -7.051177e+00
 -7.049621e+00
 -7.048772e+00
 -7.048308e+00
 -7.048055e+00
 -7.047918e+00
 -7.047843e+00
 -7.047802e+00
 -7.047780e+00
 -7.047768e+00
 -7.047762e+00
 -7.047758e+00
 -7.047756e+00
 -7.047755e+00
 -7.047755e+00
 -7.047755e+00
 -7.047755e+00
 -7.047755e+00
 -7.047755e+00
 -7.047755e+00
 -7.047755e+00
 -7.047755e+00
 -7.047755e+00
 -7.047756e+00
 -7.047756e+00
 -2.986559e+01
 -2.943411e+01
 -2.833738e+01
 -2.688465e+01
 -2.524702e+01
 -2.351729e+01
 -2.174784e+01
 -1.997101e+01
 -1.821026e+01
 -1.648639e+01
 -1.482116e+01
 -1.323916e+01
 -1.176849e+01
 -1.043987e+01
 -9.285074e+00
 -8.328014e+00
 -7.672050e+00
 -7.228773e+00
 -6.948793e+00
 -6.782447e+00
 -6.687988e+00
 -6.635854e+00
 -6.607515e+00
 -6.592198e+00
 -6.583909e+00
 -6.579404e+00
 -6.576949e+00
 -6.575609e+00
 -6.574878e+00
 -6.574479e+00
 -6.574262e+00
 -6.574143e+00
 -6.574079e+00
 -6.574044e+00
 -6.574025e+00
 -6.574015e+00
 -6.574009e+00
 -6.574006e+00
 -6.574005e+00
 -6.574004e+00
 -6.574004e+00
 -6.574003e+00
 -6.574003e+00
 -6.574003e+00
 -6.574003e+00
 -6.574003e+00
 -6.574003e+00
 -6.574004e+00
 -6.574004e+00
 -6.574005e+00
 -6.574005e+00
 -2.975014e+01
 -2.932210e+01
 -2.822945e+01
 -2.677517e+01
 -2.512977e+01
 -2.338547e+01
 -2.159339e+01
 -1.978380e+01
 -1.797711e+01
 -1.618996e+01
 -1.443875e+01
 -1.274206e+01
 -1.112303e+01
 -9.612351e+00
 -8.254018e+00
 -7.101766e+00
 -6.375261e+00
 -5.920622e+00
 -5.659265e+00
 -5.520058e+00
 -5.449197e+00
 -5.413047e+00
 -5.394419e+00
 -5.384654e+00
 -5.379399e+00
 -5.376540e+00
 -5.374981e+00
 -5.374130e+00
 -5.373666e+00
 -5.373412e+00
 -5.373274e+00
 -5.373199e+00
 -5.373158e+00
 -5.373136e+00
 -5.373124e+00
 -5.373118e+00
 -5.373115e+00
 -5.373113e+00
 -5.373112e+00
 -5.373111e+00
 -5.373111e+00
 -5.373111e+00
 -5.373111e+00
 -5.373111e+00
 -5.373111e+00
 -5.373111e+00
 -5.373111e+00
 -5.373111e+00
 -5.373112e+00
 -5.373113e+00
 -5.373113e+00
 -2.950690e+01
 -2.908534e+01
 -2.800049e+01
 -2.654352e+01
 -2.488427e+01
 -2.311462e+01
 -2.128439e+01
 -1.942163e+01
 -1.754344e+01
 -1.566207e+01
 -1.378857e+01
 -1.193556e+01
 -1.012100e+01
 -8.375539e+00
 -6.759050e+00
 -5.372867e+00
 -4.569909e+00
 -4.145765e+00
 -3.939573e+00
 -3.852638e+00
 -3.819143e+00
 -3.803075e+00
 -3.795853e+00
 -3.792092e+00
 -3.789931e+00
 -3.788740e+00
 -3.788087e+00
 -3.787732e+00
 -3.787538e+00
 -3.787433e+00
 -3.787375e+00
 -3.787344e+00
 -3.787327e+00
 -3.787318e+00
 -3.787314e+00
 -3.787311e+00
 -3.787310e+00
 -3.787309e+00
 -3.787309e+00
 -3.787309e+00
 -3.787309e+00
 -3.787309e+00
 -3.787309e+00
 -3.787309e+00
 -3.787309e+00
 -3.787309e+00
 -3.787309e+00
 -3.787309e+00
 -3.787309e+00
 -3.787310e+00
 -3.787313e+00
 -2.914844e+01
 -2.873574e+01
 -2.766313e+01
 -2.620628e+01
 -2.453357e+01
 -2.273679e+01
 -2.086511e+01
 -1.894500e+01
 -1.699108e+01
 -1.501203e+01
 -1.301396e+01
 -1.100242e+01
 -8.985265e+00
 -6.977892e+00
 -5.023527e+00
 -3.283307e+00
 -2.392682e+00
 -2.114854e+00
 -1.994933e+00
 -1.985705e+00
 -1.999423e+00
 -1.995163e+00
 -1.999498e+00
 -1.999458e+00
 -1.999381e+00
 -1.999389e+00
 -1.999376e+00
 -1.999379e+00
 -1.999378e+00
 -1.999378e+00
 -1.999378e+00
 -1.999378e+00
 -1.999379e+00
 -1.999379e+00
 -1.999379e+00
 -1.999379e+00
 -1.999380e+00
 -1.999380e+00
 -1.999380e+00
 -1.999380e+00
 -1.999380e+00
 -1.999380e+00
 -1.999380e+00
 -1.999380e+00
 -1.999380e+00
 -1.999380e+00
 -1.999380e+00
 -1.999380e+00
 -1.999380e+00
 -1.999379e+00
 -1.999394e+00
 -2.868992e+01
 -2.828840e+01
 -2.723398e+01
 -2.578455e+01
 -2.410555e+01
 -2.228882e+01
 -2.038356e+01
 -1.841571e+01
 -1.639857e+01
 -1.433847e+01
 -1.223744e+01
 -1.009402e+01
 -7.901564e+00
 -5.646019e+00
 -3.314358e+00
 -8.413101e-01
 2.240689e-01
 -6.120936e-02
 1.541116e-02
 -4.504632e-03
 8.878549e-04
 -3.417975e-04
 -1.998051e-05
 -2.574769e-05
 -3.001985e-05
 -6.866676e-06
 -1.041287e-05
 -2.962526e-06
 -3.223043e-06
 -2.371887e-06
 -1.386695e-06
 -7.717184e-07
 -2.559791e-07
 -6.299836e-07
 -4.012842e-07
 -4.177970e-07
 -4.184080e-07
 -4.047311e-07
 -4.337844e-07
 -4.589440e-07
 -4.989010e-07
 -5.360497e-07
 -6.058720e-07
 -6.655151e-07
 -8.237782e-07
 -8.962097e-07
 -1.136094e-06
 -1.393507e-06
 -1.389700e-06
 -4.153772e-06
 6.072684e-05
 -2.814004e+01
 -2.775291e+01
 -2.672539e+01
 -2.529514e+01
 -2.362295e+01
 -2.180062e+01
 -1.987805e+01
 -1.788176e+01
 -1.582508e+01
 -1.371374e+01
 -1.154798e+01
 -9.322355e+00
 -7.022384e+00
 -4.605236e+00
 -1.949870e+00
 1.331985e+00
 1.674812e+00
 1.955241e+00
 1.999759e+00
 1.997332e+00
 1.996272e+00
 1.999975e+00
 1.999020e+00
 1.983259e+00
 1.999935e+00
 1.993037e+00
 1.999860e+00
 1.997089e+00
 1.999959e+00
 1.997592e+00
 1.998859e+00
 1.998713e+00
 1.999356e+00
 1.999695e+00
 1.999674e+00
 1.999733e+00
 1.999798e+00
 1.999827e+00
 1.999891e+00
 1.999906e+00
 1.999937e+00
 1.999978e+00
 1.999987e+00
 1.999993e+00
 1.999992e+00
 1.999996e+00
 1.999998e+00
 1.999996e+00
 2.000000e+00
 1.999952e+00
 1.999772e+00
 -2.750290e+01
 -2.713435e+01
 -2.614503e+01
 -2.474939e+01
 -2.310153e+01
 -2.129281e+01
 -1.937437e+01
 -1.737423e+01
 -1.530721e+01
 -1.318024e+01
 -1.099505e+01
 -8.747258e+00
 -6.428695e+00
 -4.022457e+00
 -1.623306e+00
 1.729150e+00
 2.549501e+00
 3.095514e+00
 3.426497e+00
 3.621642e+00
 3.744289e+00
 3.825741e+00
 3.878379e+00
 3.912222e+00
 3.939878e+00
 3.957859e+00
 3.971285e+00
 3.979921e+00
 3.986112e+00
 3.989849e+00
 3.992752e+00
 3.994843e+00
 3.996447e+00
 3.997586e+00
 3.998309e+00
 3.998801e+00
 3.999151e+00
 3.999398e+00
 3.999581e+00
 3.999708e+00
 3.999803e+00
 3.999875e+00
 3.999921e+00
 3.999950e+00
 3.999966e+00
 3.999975e+00
 3.999979e+00
 3.999975e+00
 3.999961e+00
 3.999921e+00
 3.999904e+00
 -2.677722e+01
 -2.643194e+01
 -2.549363e+01
 -2.415034e+01
 -2.254692e+01
 -2.077355e+01
 -1.888280e+01
 -1.690491e+01
 -1.485716e+01
 -1.274942e+01
 -1.058692e+01
 -8.371165e+00
 -6.099352e+00
 -3.751898e+00
 -1.251885e+00
 1.934336e+00
 3.005539e+00
 3.883987e+00
 4.543173e+00
 5.001946e+00
 5.316454e+00
 5.530104e+00
 5.675583e+00
 5.774741e+00
 5.843936e+00
 5.891925e+00
 5.925297e+00
 5.948289e+00
 5.964125e+00
 5.974951e+00
 5.982484e+00
 5.987777e+00
 5.991518e+00
 5.994138e+00
 5.995942e+00
 5.997183e+00
 5.998044e+00
 5.998644e+00
 5.999065e+00
 5.999361e+00
 5.999570e+00
 5.999718e+00
 5.999818e+00
 5.999884e+00
 5.999924e+00
 5.999946e+00
 5.999954e+00
 5.999950e+00
 5.999934e+00
 5.999914e+00
 5.999815e+00
 -2.595744e+01
 -2.563978e+01
 -2.476507e+01
 -2.349229e+01
 -2.195414e+01
 -2.023833e+01
 -1.839864e+01
 -1.646770e+01
 -1.446579e+01
 -1.240616e+01
 -1.029911e+01
 -8.152699e+00
 -5.979611e+00
 -3.792289e+00
 -1.659312e+00
 1.633115e+00
 3.015439e+00
 4.270299e+00
 5.290129e+00
 6.083062e+00
 6.658731e+00
 7.069315e+00
 7.354829e+00
 7.553379e+00
 7.690700e+00
 7.786019e+00
 7.851959e+00
 7.897602e+00
 7.929099e+00
 7.950847e+00
 7.965886e+00
 7.976333e+00
 7.983602e+00
 7.988659e+00
 7.992162e+00
 7.994586e+00
 7.996264e+00
 7.997429e+00
 7.998239e+00
 7.998804e+00
 7.999198e+00
 7.999470e+00
 7.999657e+00
 7.999779e+00
 7.999855e+00
 7.999896e+00
 7.999911e+00
 7.999905e+00
 7.999890e+00
 7.999859e+00
 8.000168e+00
 -2.503587e+01
 -2.474895e+01
 -2.394805e+01
 -2.276211e+01
 -2.130870e+01
 -1.967130e+01
 -1.790409e+01
 -1.604178e+01
 -1.410736e+01
 -1.211690e+01
 -1.008501e+01
 -8.021752e+00
 -5.958825e+00
 -3.888094e+00
 -2.064270e+00
 1.130195e+00
 2.959943e+00
 4.424450e+00
 5.778955e+00
 6.880588e+00
 7.760134e+00
 8.413932e+00
 8.888957e+00
 9.226014e+00
 9.462077e+00
 9.627182e+00
 9.741588e+00
 9.821193e+00
 9.876163e+00
 9.914303e+00
 9.940641e+00
 9.958922e+00
 9.971576e+00
 9.980363e+00
 9.986445e+00
 9.990661e+00
 9.993579e+00
 9.995603e+00
 9.997007e+00
 9.997982e+00
 9.998659e+00
 9.999125e+00
 9.999445e+00
 9.999655e+00
 9.999788e+00
 9.999860e+00
 9.999892e+00
 9.999898e+00
 9.999864e+00
 1.000003e+01
 9.998982e+00
 -2.400563e+01
 -2.375059e+01
 -2.302934e+01
 -2.194224e+01
 -2.058949e+01
 -1.904820e+01
 -1.737166e+01
 -1.559587e+01
 -1.374559e+01
 -1.183906e+01
 -9.891027e+00
 -7.914750e+00
 -5.922130e+00
 -3.916907e+00
 -1.854589e+00
 5.195753e-01
 2.548547e+00
 4.443332e+00
 6.055916e+00
 7.464166e+00
 8.630330e+00
 9.558606e+00
 1.025853e+01
 1.077409e+01
 1.114151e+01
 1.140250e+01
 1.158458e+01
 1.171210e+01
 1.180044e+01
 1.186193e+01
 1.190445e+01
 1.193398e+01
 1.195440e+01
 1.196857e+01
 1.197836e+01
 1.198516e+01
 1.198986e+01
 1.199312e+01
 1.199538e+01
 1.199695e+01
 1.199804e+01
 1.199879e+01
 1.199932e+01
 1.199967e+01
 1.199990e+01
 1.200003e+01
 1.200010e+01
 1.200006e+01
 1.199994e+01
 1.199929e+01
 1.199716e+01
 -2.286349e+01
 -2.263930e+01
 -2.199804e+01
 -2.101529e+01
 -1.977331e+01
 -1.834088e+01
 -1.676879e+01
 -1.509313e+01
 -1.333964e+01
 -1.152738e+01
 -9.671087e+00
 -7.782278e+00
 -5.866595e+00
 -3.921334e+00
 -1.897544e+00
 1.149092e-01
 2.213747e+00
 4.274918e+00
 6.169270e+00
 7.842337e+00
 9.289908e+00
 1.049029e+01
 1.144491e+01
 1.217095e+01
 1.270688e+01
 1.309254e+01
 1.336667e+01
 1.355931e+01
 1.369415e+01
 1.378803e+01
 1.385333e+01
 1.389863e+01
 1.393006e+01
 1.395184e+01
 1.396693e+01
 1.397738e+01
 1.398462e+01
 1.398964e+01
 1.399312e+01
 1.399554e+01
 1.399723e+01
 1.399840e+01
 1.399921e+01
 1.399976e+01
 1.400011e+01
 1.400031e+01
 1.400036e+01
 1.400024e+01
 1.399977e+01
 1.399865e+01
 1.399620e+01
 -2.161157e+01
 -2.141540e+01
 -2.084916e+01
 -1.996895e+01
 -1.884043e+01
 -1.752298e+01
 -1.606337e+01
 -1.449658e+01
 -1.284841e+01
 -1.113821e+01
 -9.381080e+00
 -7.587923e+00
 -5.768098e+00
 -3.923666e+00
 -2.119900e+00
 -1.907825e-01
 2.027856e+00
 4.213737e+00
 6.264365e+00
 8.141986e+00
 9.813897e+00
 1.125922e+01
 1.245884e+01
 1.341332e+01
 1.414253e+01
 1.468254e+01
 1.507323e+01
 1.535176e+01
 1.554830e+01
 1.568614e+01
 1.578238e+01
 1.584941e+01
 1.589601e+01
 1.592836e+01
 1.595081e+01
 1.596638e+01
 1.597718e+01
 1.598467e+01
 1.598987e+01
 1.599349e+01
 1.599601e+01
 1.599776e+01
 1.599897e+01
 1.599978e+01
 1.600030e+01
 1.600057e+01
 1.600059e+01
 1.600033e+01
 1.599965e+01
 1.599829e+01
 1.599599e+01
 -2.025754e+01
 -2.008543e+01
 -1.958544e+01
 -1.879952e+01
 -1.777958e+01
 -1.657577e+01
 -1.522993e+01
 -1.377488e+01
 -1.223560e+01
 -1.063146e+01
 -8.977547e+00
 -7.287717e+00
 -5.568266e+00
 -3.833520e+00
 -1.983386e+00
 -2.779136e-01
 2.029525e+00
 4.294832e+00
 6.445707e+00
 8.453709e+00
 1.029066e+01
 1.192900e+01
 1.334289e+01
 1.451552e+01
 1.544845e+01
 1.616277e+01
 1.669327e+01
 1.707851e+01
 1.735406e+01
 1.754912e+01
 1.768629e+01
 1.778230e+01
 1.784931e+01
 1.789599e+01
 1.792846e+01
 1.795103e+01
 1.796671e+01
 1.797761e+01
 1.798519e+01
 1.799047e+01
 1.799414e+01
 1.799670e+01
 1.799846e+01
 1.799964e+01
 1.800038e+01
 1.800075e+01
 1.800077e+01
 1.800043e+01
 1.799963e+01
 1.799824e+01
 1.799608e+01
 -1.881343e+01
 -1.866112e+01
 -1.821674e+01
 -1.751266e+01
 -1.659044e+01
 -1.549219e+01
 -1.425474e+01
 -1.290805e+01
 -1.147557e+01
 -9.975709e+00
 -8.424137e+00
 -6.833365e+00
 -5.224354e+00
 -3.603050e+00
 -2.071023e+00
 -4.282753e-02
 2.298523e+00
 4.572351e+00
 6.765150e+00
 8.844617e+00
 1.078800e+01
 1.256605e+01
 1.414939e+01
 1.551182e+01
 1.663892e+01
 1.753451e+01
 1.822071e+01
 1.873133e+01
 1.910319e+01
 1.936996e+01
 1.955937e+01
 1.969293e+01
 1.978667e+01
 1.985226e+01
 1.989806e+01
 1.992999e+01
 1.995225e+01
 1.996776e+01
 1.997856e+01
 1.998610e+01
 1.999135e+01
 1.999500e+01
 1.999751e+01
 1.999920e+01
 2.000025e+01
 2.000080e+01
 2.000090e+01
 2.000056e+01
 1.999976e+01
 1.999844e+01
 1.999654e+01
 -1.729383e+01
 -1.715722e+01
 -1.675770e+01
 -1.612144e+01
 -1.528273e+01
 -1.427742e+01
 -1.313782e+01
 -1.189080e+01
 -1.055791e+01
 -9.155964e+00
 -7.698383e+00
 -6.197387e+00
 -4.665805e+00
 -3.136617e+00
 -1.709419e+00
 6.029337e-01
 2.843771e+00
 5.061137e+00
 7.245962e+00
 9.349342e+00
 1.135110e+01
 1.322079e+01
 1.492833e+01
 1.644305e+01
 1.774056e+01
 1.880966e+01
 1.965708e+01
 2.030606e+01
 2.078950e+01
 2.114232e+01
 2.139608e+01
 2.157676e+01
 2.170453e+01
 2.179446e+01
 2.185756e+01
 2.190175e+01
 2.193266e+01
 2.195426e+01
 2.196936e+01
 2.197991e+01
 2.198728e+01
 2.199241e+01
 2.199595e+01
 2.199834e+01
 2.199985e+01
 2.200068e+01
 2.200095e+01
 2.200071e+01
 2.200002e+01
 2.199886e+01
 2.199724e+01
 -1.571400e+01
 -1.558950e+01
 -1.522502e+01
 -1.464295e+01
 -1.387281e+01
 -1.294584e+01
 -1.189080e+01
 -1.073189e+01
 -9.488290e+00
 -8.174452e+00
 -6.804090e+00
 -5.378106e+00
 -3.919735e+00
 -2.330529e+00
 -7.789509e-01
 1.453184e+00
 3.593543e+00
 5.743885e+00
 7.885045e+00
 9.980881e+00
 1.200422e+01
 1.392690e+01
 1.571862e+01
 1.734777e+01
 1.878490e+01
 2.000859e+01
 2.101164e+01
 2.180397e+01
 2.240990e+01
 2.286144e+01
 2.319148e+01
 2.342940e+01
 2.359925e+01
 2.371971e+01
 2.380475e+01
 2.386461e+01
 2.390666e+01
 2.393617e+01
 2.395687e+01
 2.397138e+01
 2.398154e+01
 2.398864e+01
 2.399356e+01
 2.399689e+01
 2.399906e+01
 2.400033e+01
 2.400089e+01
 2.400087e+01
 2.400037e+01
 2.399945e+01
 2.399816e+01
 -1.408840e+01
 -1.397296e+01
 -1.363503e+01
 -1.309498e+01
 -1.237944e+01
 -1.151674e+01
 -1.053250e+01
 -9.448515e+00
 -8.282599e+00
 -7.049096e+00
 -5.751528e+00
 -4.415953e+00
 -2.986718e+00
 -1.659998e+00
 3.904077e-01
 2.426948e+00
 4.491160e+00
 6.580691e+00
 8.669132e+00
 1.073706e+01
 1.275726e+01
 1.470360e+01
 1.654711e+01
 1.825697e+01
 1.980213e+01
 2.115554e+01
 2.229976e+01
 2.323198e+01
 2.396528e+01
 2.452491e+01
 2.494186e+01
 2.524697e+01
 2.546735e+01
 2.562509e+01
 2.573729e+01
 2.581674e+01
 2.587286e+01
 2.591243e+01
 2.594029e+01
 2.595990e+01
 2.597368e+01
 2.598335e+01
 2.599007e+01
 2.599469e+01
 2.599775e+01
 2.599965e+01
 2.600066e+01
 2.600099e+01
 2.600079e+01
 2.600017e+01
 2.599922e+01
 -1.243012e+01
 -1.232113e+01
 -1.200254e+01
 -1.149404e+01
 -1.082097e+01
 -1.000919e+01
 -9.083082e+00
 -8.063173e+00
 -6.964379e+00
 -5.795708e+00
 -4.579744e+00
 -3.285312e+00
 -2.053305e+00
 -3.754900e-01
 1.629245e+00
 3.545860e+00
 5.527915e+00
 7.547596e+00
 9.581501e+00
 1.161014e+01
 1.361107e+01
 1.556002e+01
 1.743036e+01
 1.919302e+01
 2.081749e+01
 2.227443e+01
 2.354009e+01
 2.460158e+01
 2.546063e+01
 2.613321e+01
 2.664524e+01
 2.702652e+01
 2.730576e+01
 2.750783e+01
 2.765284e+01
 2.775628e+01
 2.782979e+01
 2.788188e+01
 2.791875e+01
 2.794480e+01
 2.796320e+01
 2.797615e+01
 2.798523e+01
 2.799152e+01
 2.799578e+01
 2.799854e+01
 2.800019e+01
 2.800100e+01
 2.800121e+01
 2.800095e+01
 2.800036e+01
 -1.074977e+01
 -1.064493e+01
 -1.033922e+01
 -9.853314e+00
 -9.212458e+00
 -8.442599e+00
 -7.563434e+00
 -6.592186e+00
 -5.548933e+00
 -4.451592e+00
 -3.264782e+00
 -2.078990e+00
 -6.667500e-01
 1.113731e+00
 2.911917e+00
 4.768882e+00
 6.679368e+00
 8.630418e+00
 1.060705e+01
 1.259067e+01
 1.456186e+01
 1.649880e+01
 1.837734e+01
 2.017074e+01
 2.185012e+01
 2.338602e+01
 2.475156e+01
 2.592703e+01
 2.690443e+01
 2.768984e+01
 2.830177e+01
 2.876639e+01
 2.911211e+01
 2.936550e+01
 2.954920e+01
 2.968135e+01
 2.977592e+01
 2.984334e+01
 2.989131e+01
 2.992538e+01
 2.994954e+01
 2.996664e+01
 2.997871e+01
 2.998715e+01
 2.999296e+01
 2.999687e+01
 2.999936e+01
 3.000083e+01
 3.000155e+01
 3.000173e+01
 3.000151e+01
 -9.058168e+00
 -8.955058e+00
 -8.656246e+00
 -8.184658e+00
 -7.567779e+00
 -6.826789e+00
 -5.986312e+00
 -5.065081e+00
 -4.067411e+00
 -2.999526e+00
 -1.964387e+00
 -6.097269e-01
 9.643545e-01
 2.591797e+00
 4.301657e+00
 6.086216e+00
 7.927476e+00
 9.814330e+00
 1.173322e+01
 1.366882e+01
 1.560377e+01
 1.751870e+01
 1.939188e+01
 2.119905e+01
 2.291348e+01
 2.450684e+01
 2.595136e+01
 2.722332e+01
 2.830754e+01
 2.920101e+01
 2.991383e+01
 3.046648e+01
 3.088498e+01
 3.119617e+01
 3.142442e+01
 3.159019e+01
 3.170976e+01
 3.179560e+01
 3.185701e+01
 3.190087e+01
 3.193213e+01
 3.195438e+01
 3.197017e+01
 3.198132e+01
 3.198912e+01
 3.199449e+01
 3.199807e+01
 3.200037e+01
 3.200173e+01
 3.200240e+01
 3.200258e+01
 -7.359906e+00
 -7.255959e+00
 -6.956298e+00
 -6.491133e+00
 -5.891033e+00
 -5.186283e+00
 -4.377463e+00
 -3.468542e+00
 -2.491742e+00
 -1.525999e+00
 -3.645373e-01
 1.076072e+00
 2.569465e+00
 4.128880e+00
 5.772592e+00
 7.486627e+00
 9.261745e+00
 1.108656e+01
 1.294894e+01
 1.483523e+01
 1.673012e+01
 1.861634e+01
 2.047447e+01
 2.228262e+01
 2.401637e+01
 2.564920e+01
 2.715378e+01
 2.850459e+01
 2.968171e+01
 3.067485e+01
 3.148587e+01
 3.212835e+01
 3.262413e+01
 3.299864e+01
 3.327694e+01
 3.348125e+01
 3.362992e+01
 3.373744e+01
 3.381488e+01
 3.387050e+01
 3.391036e+01
 3.393889e+01
 3.395926e+01
 3.397377e+01
 3.398404e+01
 3.399123e+01
 3.399618e+01
 3.399951e+01
 3.400164e+01
 3.400289e+01
 3.400346e+01
 -5.674057e+00
 -5.564802e+00
 -5.256805e+00
 -4.786397e+00
 -4.198877e+00
 -3.495272e+00
 -2.709214e+00
 -1.921499e+00
 -9.224928e-01
 1.994737e-01
 1.457339e+00
 2.793903e+00
 4.217173e+00
 5.724219e+00
 7.305448e+00
 8.957112e+00
 1.067074e+01
 1.243674e+01
 1.424430e+01
 1.608129e+01
 1.793408e+01
 1.978729e+01
 2.162354e+01
 2.342318e+01
 2.516407e+01
 2.682169e+01
 2.836999e+01
 2.978314e+01
 3.103852e+01
 3.212054e+01
 3.302396e+01
 3.375516e+01
 3.433051e+01
 3.477255e+01
 3.510574e+01
 3.535325e+01
 3.553514e+01
 3.566777e+01
 3.576397e+01
 3.583349e+01
 3.588360e+01
 3.591968e+01
 3.594560e+01
 3.596419e+01
 3.597747e+01
 3.598691e+01
 3.599354e+01
 3.599811e+01
 3.600117e+01
 3.600307e+01
 3.600406e+01
 -3.983626e+00
 -3.863536e+00
 -3.529320e+00
 -3.038707e+00
 -2.451079e+00
 -1.871884e+00
 -1.045913e+00
 -1.142470e-01
 9.303637e-01
 2.047822e+00
 3.260019e+00
 4.544331e+00
 5.916945e+00
 7.367943e+00
 8.893691e+00
 1.048834e+01
 1.214511e+01
 1.385573e+01
 1.561068e+01
 1.739918e+01
 1.920907e+01
 2.102665e+01
 2.283637e+01
 2.462057e+01
 2.635924e+01
 2.802995e+01
 2.960828e+01
 3.106902e+01
 3.238842e+01
 3.354742e+01
 3.453515e+01
 3.535134e+01
 3.600631e+01
 3.651847e+01
 3.691042e+01
 3.720534e+01
 3.742440e+01
 3.758558e+01
 3.770338e+01
 3.778909e+01
 3.785125e+01
 3.789625e+01
 3.792878e+01
 3.795227e+01
 3.796919e+01
 3.798133e+01
 3.798998e+01
 3.799605e+01
 3.800019e+01
 3.800283e+01
 3.800425e+01
 -2.376524e+00
 -2.222452e+00
 -1.867707e+00
 -1.319192e+00
 -6.993937e-01
 8.461601e-03
 8.846642e-01
 1.820192e+00
 2.836423e+00
 3.918743e+00
 5.083336e+00
 6.329984e+00
 7.654699e+00
 9.056486e+00
 1.053092e+01
 1.207319e+01
 1.367723e+01
 1.533581e+01
 1.704056e+01
 1.878188e+01
 2.054895e+01
 2.232949e+01
 2.410959e+01
 2.587339e+01
 2.760279e+01
 2.927737e+01
 3.087449e+01
 3.237010e+01
 3.374037e+01
 3.496428e+01
 3.602690e+01
 3.692227e+01
 3.765475e+01
 3.823786e+01
 3.869126e+01
 3.903709e+01
 3.929695e+01
 3.949003e+01
 3.963232e+01
 3.973658e+01
 3.981269e+01
 3.986811e+01
 3.990841e+01
 3.993769e+01
 3.995892e+01
 3.997429e+01
 3.998534e+01
 3.999318e+01
 3.999858e+01
 4.000204e+01
 4.000390e+01
 -5.418654e-01
 -3.193450e-01
 7.707171e-02
 6.800041e-01
 1.328062e+00
 2.051716e+00
 2.882103e+00
 3.780605e+00
 4.757076e+00
 5.810620e+00
 6.939571e+00
 8.145692e+00
 9.428199e+00
 1.078472e+01
 1.221206e+01
 1.370586e+01
 1.526079e+01
 1.687047e+01
 1.852745e+01
 2.022322e+01
 2.194808e+01
 2.369105e+01
 2.543962e+01
 2.717952e+01
 2.889439e+01
 3.056565e+01
 3.217246e+01
 3.369221e+01
 3.510166e+01
 3.637895e+01
 3.750647e+01
 3.847380e+01
 3.927986e+01
 3.993303e+01
 4.044922e+01
 4.084861e+01
 4.115242e+01
 4.138052e+01
 4.155012e+01
 4.167534e+01
 4.176737e+01
 4.183479e+01
 4.188410e+01
 4.192012e+01
 4.194641e+01
 4.196556e+01
 4.197942e+01
 4.198932e+01
 4.199617e+01
 4.200058e+01
 4.200290e+01
 1.776491e+00
 1.930149e+00
 2.284981e+00