<?xml version="1.0"?>
<VTKFile type="UnstructuredGrid" version="0.1">
<UnstructuredGrid>
<Piece NumberOfPoints="2601" NumberOfCells="2500">
<Points>
<DataArray NumberOfComponents="3" type="Float64" format="ascii">
 0.000000e+00 0.000000e+00 0.000000e+00
 2.000000e+00 0.000000e+00 0.000000e+00
 4.000000e+00 0.000000e+00 0.000000e+00
 6.000000e+00 0.000000e+00 0.000000e+00
 8.000000e+00 0.000000e+00 0.000000e+00
 1.000000e+01 0.000000e+00 0.000000e+00
 1.200000e+01 0.000000e+00 0.000000e+00
 1.400000e+01 0.000000e+00 0.000000e+00
 1.600000e+01 0.000000e+00 0.000000e+00
 1.800000e+01 0.000000e+00 0.000000e+00
 2.000000e+01 0.000000e+00 0.000000e+00
 2.200000e+01 0.000000e+00 0.000000e+00
 2.400000e+01 0.000000e+00 0.000000e+00
 2.600000e+01 0.000000e+00 0.000000e+00
 2.800000e+01 0.000000e+00 0.000000e+00
 3.000000e+01 0.000000e+00 0.000000e+00
 3.200000e+01 0.000000e+00 0.000000e+00
 3.400000e+01 0.000000e+00 0.000000e+00
 3.600000e+01 0.000000e+00 0.000000e+00
 3.800000e+01 0.000000e+00 0.000000e+00
 4.000000e+01 0.000000e+00 0.000000e+00
 4.200000e+01 0.000000e+00 0.000000e+00
 4.400000e+01 0.000000e+00 0.000000e+00
 4.600000e+01 0.000000e+00 0.000000e+00
 4.800000e+01 0.000000e+00 0.000000e+00
 5.000000e+01 0.000000e+00 0.000000e+00
 5.200000e+01 0.000000e+00 0.000000e+00
 5.400000e+01 0.000000e+00 0.000000e+00
 5.600000e+01 0.000000e+00 0.000000e+00
 5.800000e+01 0.000000e+00 0.000000e+00
 6.000000e+01 0.000000e+00 0.000000e+00
 6.200000e+01 0.000000e+00 0.000000e+00
 6.400000e+01 0.000000e+00 0.000000e+00
 6.600000e+01 0.000000e+00 0.000000e+00
 6.800000e+01 0.000000e+00 0.000000e+00
 7.000000e+01 0.000000e+00 0.000000e+00
 7.200000e+01 0.000000e+00 0.000000e+00
 7.400000e+01 0.000000e+00 0.000000e+00
 7.600000e+01 0.000000e+00 0.000000e+00
 7.800000e+01 0.000000e+00 0.000000e+00
 8.000000e+01 0.000000e+00 0.000000e+00
 8.200000e+01 0.000000e+00 0.000000e+00
 8.400000e+01 0.000000e+00 0.000000e+00
 8.600000e+01 0.000000e+00 0.000000e+00
 8.800000e+01 0.000000e+00 0.000000e+00
 9.000000e+01 0.000000e+00 0.000000e+00
 9.200000e+01 0.000000e+00 0.000000e+00
 9.400000e+01 0.000000e+00 0.000000e+00
 9.600000e+01 0.000000e+00 0.000000e+00
 9.800000e+01 0.000000e+00 0.000000e+00
 1.000000e+02 0.000000e+00 0.000000e+00
 0.000000e+00 2.000000e+00 0.000000e+00
 2.000000e+00 2.000000e+00 0.000000e+00
 4.000000e+00 2.000000e+00 0.000000e+00
 6.000000e+00 2.000000e+00 0.000000e+00
 8.000000e+00 2.000000e+00 0.000000e+00
 1.000000e+01 2.000000e+00 0.000000e+00
 1.200000e+01 2.000000e+00 0.000000e+00
 1.400000e+01 2.000000e+00 0.000000e+00
 1.600000e+01 2.000000e+00 0.000000e+00
 1.800000e+01 2.000000e+00 0.000000e+00
 2.000000e+01 2.000000e+00 0.000000e+00
 2.200000e+01 2.000000e+00 0.000000e+00
 2.400000e+01 2.000000e+00 0.000000e+00
 2.600000e+01 2.000000e+00 0.000000e+00
 2.800000e+01 2.000000e+00 0.000000e+00
 3.000000e+01 2.000000e+00 0.000000e+00
 3.200000e+01 2.000000e+00 0.000000e+00
 3.400000e+01 2.000000e+00 0.000000e+00
 3.600000e+01 2.000000e+00 0.000000e+00
 3.800000e+01 2.000000e+00 0.000000e+00
 4.000000e+01 2.000000e+00 0.000000e+00
 4.200000e+01 2.000000e+00 0.000000e+00
 4.400000e+01 2.000000e+00 0.000000e+00
 4.600000e+01 2.000000e+00 0.000000e+00
 4.800000e+01 2.000000e+00 0.000000e+00
 5.000000e+01 2.000000e+00 0.000000e+00
 5.200000e+01 2.000000e+00 0.000000e+00
 5.400000e+01 2.000000e+00 0.000000e+00
 5.600000e+01 2.000000e+00 0.000000e+00
 5.800000e+01 2.000000e+00 0.000000e+00
 6.000000e+01 2.000000e+00 0.000000e+00
 6.200000e+01 2.000000e+00 0.000000e+00
 6.400000e+01 2.000000e+00 0.000000e+00
 6.600000e+01 2.000000e+00 0.000000e+00
 6.800000e+01 2.000000e+00 0.000000e+00
 7.000000e+01 2.000000e+00 0.000000e+00
 7.200000e+01 2.000000e+00 0.000000e+00
 7.400000e+01 2.000000e+00 0.000000e+00
 7.600000e+01 2.000000e+00 0.000000e+00
 7.800000e+01 2.000000e+00 0.000000e+00
 8.000000e+01 2.000000e+00 0.000000e+00
 8.200000e+01 2.000000e+00 0.000000e+00
 8.400000e+01 2.000000e+00 0.000000e+00
 8.600000e+01 2.000000e+00 0.000000e+00
 8.800000e+01 2.000000e+00 0.000000e+00
 9.000000e+01 2.000000e+00 0.000000e+00
 9.200000e+01 2.000000e+00 0.000000e+00
 9.400000e+01 2.000000e+00 0.000000e+00
 9.600000e+01 2.000000e+00 0.000000e+00
 9.800000e+01 2.000000e+00 0.000000e+00
 1.000000e+02 2.000000e+00 0.000000e+00
 0.000000e+00 4.000000e+00 0.000000e+00
 2.000000e+00 4.000000e+00 0.000000e+00
 4.000000e+00 4.000000e+00 0.000000e+00
 6.000000e+00 4.000000e+00 0.000000e+00
 8.000000e+00 4.000000e+00 0.000000e+00
 1.000000e+01 4.000000e+00 0.000000e+00
 1.200000e+01 4.000000e+00 0.000000e+00
 1.400000e+01 4.000000e+00 0.000000e+00
 1.600000e+01 4.000000e+00 0.000000e+00
 1.800000e+01 4.000000e+00 0.000000e+00
 2.000000e+01 4.000000e+00 0.000000e+00
 2.200000e+01 4.000000e+00 0.000000e+00
 2.400000e+01 4.000000e+00 0.000000e+00
 2.600000e+01 4.000000e+00 0.000000e+00
 2.800000e+01 4.000000e+00 0.000000e+00
 3.000000e+01 4.000000e+00 0.000000e+00
 3.200000e+01 4.000000e+00 0.000000e+00
 3.400000e+01 4.000000e+00 0.000000e+00
 3.600000e+01 4.000000e+00 0.000000e+00
 3.800000e+01 4.000000e+00 0.000000e+00
 4.000000e+01 4.000000e+00 0.000000e+00
 4.200000e+01 4.000000e+00 0.000000e+00
 4.400000e+01 4.000000e+00 0.000000e+00
 4.600000e+01 4.000000e+00 0.000000e+00
 4.800000e+01 4.000000e+00 0.000000e+00
 5.000000e+01 4.000000e+00 0.000000e+00
 5.200000e+01 4.000000e+00 0.000000e+00
 5.400000e+01 4.000000e+00 0.000000e+00
 5.600000e+01 4.000000e+00 0.000000e+00
 5.800000e+01 4.000000e+00 0.000000e+00
 6.000000e+01 4.000000e+00 0.000000e+00
 6.200000e+01 4.000000e+00 0.000000e+00
 6.400000e+01 4.000000e+00 0.000000e+00
 6.600000e+01 4.000000e+00 0.000000e+00
 6.800000e+01 4.000000e+00 0.000000e+00
 7.000000e+01 4.000000e+00 0.000000e+00
 7.200000e+01 4.000000e+00 0.000000e+00
 7.400000e+01 4.000000e+00 0.000000e+00
 7.600000e+01 4.000000e+00 0.000000e+00
 7.800000e+01 4.000000e+00 0.000000e+00
 8.000000e+01 4.000000e+00 0.000000e+00
 8.200000e+01 4.000000e+00 0.000000e+00
 8.400000e+01 4.000000e+00 0.000000e+00
 8.600000e+01 4.000000e+00 0.000000e+00
 8.800000e+01 4.000000e+00 0.000000e+00
 9.000000e+01 4.000000e+00 0.000000e+00
 9.200000e+01 4.000000e+00 0.000000e+00
 9.400000e+01 4.000000e+00 0.000000e+00
 9.600000e+01 4.000000e+00 0.000000e+00
 9.800000e+01 4.000000e+00 0.000000e+00
 1.000000e+02 4.000000e+00 0.000000e+00
 0.000000e+00 6.000000e+00 0.000000e+00
 2.000000e+00 6.000000e+00 0.000000e+00
 4.000000e+00 6.000000e+00 0.000000e+00
 6.000000e+00 6.000000e+00 0.000000e+00
 8.000000e+00 6.000000e+00 0.000000e+00
 1.000000e+01 6.000000e+00 0.000000e+00
 1.200000e+01 6.000000e+00 0.000000e+00
 1.400000e+01 6.000000e+00 0.000000e+00
 1.600000e+01 6.000000e+00 0.000000e+00
 1.800000e+01 6.000000e+00 0.000000e+00
 2.000000e+01 6.000000e+00 0.000000e+00
 2.200000e+01 6.000000e+00 0.000000e+00
 2.400000e+01 6.000000e+00 0.000000e+00
 2.600000e+01 6.000000e+00 0.000000e+00
 2.800000e+01 6.000000e+00 0.000000e+00
 3.000000e+01 6.000000e+00 0.000000e+00
 3.200000e+01 6.000000e+00 0.000000e+00
 3.400000e+01 6.000000e+00 0.000000e+00
 3.600000e+01 6.000000e+00 0.000000e+00
 3.800000e+01 6.000000e+00 0.000000e+00
 4.000000e+01 6.000000e+00 0.000000e+00
 4.200000e+01 6.000000e+00 0.000000e+00
 4.400000e+01 6.000000e+00 0.000000e+00
 4.600000e+01 6.000000e+00 0.000000e+00
 4.800000e+01 6.000000e+00 0.000000e+00
 5.000000e+01 6.000000e+00 0.000000e+00
 5.200000e+01 6.000000e+00 0.000000e+00
 5.400000e+01 6.000000e+00 0.000000e+00
 5.600000e+01 6.000000e+00 0.000000e+00
 5.800000e+01 6.000000e+00 0.000000e+00
 6.000000e+01 6.000000e+00 0.000000e+00
 6.200000e+01 6.000000e+00 0.000000e+00
 6.400000e+01 6.000000e+00 0.000000e+00
 6.600000e+01 6.000000e+00 0.000000e+00
 6.800000e+01 6.000000e+00 0.000000e+00
 7.000000e+01 6.000000e+00 0.000000e+00
 7.200000e+01 6.000000e+00 0.000000e+00
 7.400000e+01 6.000000e+00 0.000000e+00
 7.600000e+01 6.000000e+00 0.000000e+00
 7.800000e+01 6.000000e+00 0.000000e+00
 8.000000e+01 6.000000e+00 0.000000e+00
 8.200000e+01 6.000000e+00 0.000000e+00
 8.400000e+01 6.000000e+00 0.000000e+00
 8.600000e+01 6.000000e+00 0.000000e+00
 8.800000e+01 6.000000e+00 0.000000e+00
 9.000000e+01 6.000000e+00 0.000000e+00
 9.200000e+01 6.000000e+00 0.000000e+00
 9.400000e+01 6.000000e+00 0.000000e+00
 9.600000e+01 6.000000e+00 0.000000e+00
 9.800000e+01 6.000000e+00 0.000000e+00
 1.000000e+02 6.000000e+00 0.000000e+00
 0.000000e+00 8.000000e+00 0.000000e+00
 2.000000e+00 8.000000e+00 0.000000e+00
 4.000000e+00 8.000000e+00 0.000000e+00
 6.000000e+00 8.000000e+00 0.000000e+00
 8.000000e+00 8.000000e+00 0.000000e+00
 1.000000e+01 8.000000e+00 0.000000e+00
 1.200000e+01 8.000000e+00 0.000000e+00
 1.400000e+01 8.000000e+00 0.000000e+00
 1.600000e+01 8.000000e+00 0.000000e+00
 1.800000e+01 8.000000e+00 0.000000e+00
 2.000000e+01 8.000000e+00 0.000000e+00
 2.200000e+01 8.000000e+00 0.000000e+00
 2.400000e+01 8.000000e+00 0.000000e+00
 2.600000e+01 8.000000e+00 0.000000e+00
 2.800000e+01 8.000000e+00 0.000000e+00
 3.000000e+01 8.000000e+00 0.000000e+00
 3.200000e+01 8.000000e+00 0.000000e+00
 3.400000e+01 8.000000e+00 0.000000e+00
 3.600000e+01 8.000000e+00 0.000000e+00
 3.800000e+01 8.000000e+00 0.000000e+00
 4.000000e+01 8.000000e+00 0.000000e+00
 4.200000e+01 8.000000e+00 0.000000e+00
 4.400000e+01 8.000000e+00 0.000000e+00
 4.600000e+01 8.000000e+00 0.000000e+00
 4.800000e+01 8.000000e+00 0.000000e+00
 5.000000e+01 8.000000e+00 0.000000e+00
 5.200000e+01 8.000000e+00 0.000000e+00
 5.400000e+01 8.000000e+00 0.000000e+00
 5.600000e+01 8.000000e+00 0.000000e+00
 5.800000e+01 8.000000e+00 0.000000e+00
 6.000000e+01 8.000000e+00 0.000000e+00
 6.200000e+01 8.000000e+00 0.000000e+00
 6.400000e+01 8.000000e+00 0.000000e+00
 6.600000e+01 8.000000e+00 0.000000e+00
 6.800000e+01 8.000000e+00 0.000000e+00
 7.000000e+01 8.000000e+00 0.000000e+00
 7.200000e+01 8.000000e+00 0.000000e+00
 7.400000e+01 8.000000e+00 0.000000e+00
 7.600000e+01 8.000000e+00 0.000000e+00
 7.800000e+01 8.000000e+00 0.000000e+00
[...]
<PointData Scalars="talus">
<DataArray Name="talus" type="Float64" NumberOfComponents="1" format="ascii">
 -2.987846e+01
 -2.944610e+01
 -2.834792e+01
 -2.689437e+01
 -2.525693e+01
 -2.352875e+01
 -2.176269e+01
 -1.999194e+01
 -1.824120e+01
 -1.653324e+01
 -1.489271e+01
 -1.334822e+01
 -1.193276e+01
 -1.068157e+01
 -9.626834e+00
 -8.788712e+00
 -8.166299e+00
 -7.734512e+00
 -7.453023e+00
 -7.279305e+00
 -7.176972e+00
 -7.118805e+00
 -7.086532e+00
 -7.068872e+00
 -7.059260e+00
 -7.054028e+00
 -7.051177e+00
 -7.049621e+00
 -7.048772e+00
 -7.048308e+00
 -7.048055e+00
 -7.047918e+00
 -7.047843e+00
 -7.047802e+00
 -7.047780e+00
 -7.047768e+00
 -7.047762e+00
 -7.047758e+00
 -7.047756e+00
 -7.047755e+00
 -7.047755e+00
 -7.047755e+00
 -7.047755e+00
 -7.047755e+00
 -7.047755e+00
 -7.047755e+00
 -7.047755e+00
 -7.047755e+00
 -7.047755e+00
 -7.047756e+00
 -7.047756e+00
 -2.981343e+01
 -2.938247e+01
 -2.828556e+01
 -2.683019e+01
 -2.518781e+01
 -2.345150e+01
 -2.167377e+01
 -1.988714e+01
 -1.811534e+01
 -1.637986e+01
 -1.470386e+01
 -1.311467e+01
 -1.164503e+01
 -1.033268e+01
 -9.216527e+00
 -8.326947e+00
 -7.672333e+00
 -7.228699e+00
 -6.948810e+00
 -6.782443e+00
 -6.687988e+00
 -6.635854e+00
 -6.607515e+00
 -6.592199e+00
 -6.583908e+00
 -6.579404e+00
 -6.576949e+00
 -6.575609e+00
 -6.574878e+00
 -6.574479e+00
 -6.574262e+00
 -6.574143e+00
 -6.574079e+00
 -6.574044e+00
 -6.574025e+00
 -6.574015e+00
 -6.574009e+00
 -6.574006e+00
 -6.574005e+00
 -6.574004e+00
 -6.574004e+00
 -6.574003e+00
 -6.574003e+00
 -6.574003e+00
 -6.574003e+00
 -6.574003e+00
 -6.574003e+00
 -6.574004e+00
 -6.574004e+00
 -6.574005e+00
 -6.574005e+00
 -2.962033e+01
 -2.919383e+01
 -2.810150e+01
 -2.664201e+01
 -2.498674e+01
 -2.322874e+01
 -2.141971e+01
 -1.959056e+01
 -1.776267e+01
 -1.595438e+01
 -1.418522e+01
 -1.247915e+01
 -1.086799e+01
 -9.395421e+00
 -8.118892e+00
 -7.100005e+00
 -6.375737e+00
 -5.920494e+00
 -5.659302e+00
 -5.520047e+00
 -5.449201e+00
 -5.413045e+00
 -5.394420e+00
 -5.384653e+00
 -5.379399e+00
 -5.376540e+00
 -5.374981e+00
 -5.374130e+00
 -5.373666e+00
 -5.373412e+00
 -5.373274e+00
 -5.373199e+00
 -5.373158e+00
 -5.373136e+00
 -5.373124e+00
 -5.373118e+00
 -5.373115e+00
 -5.373113e+00
 -5.373112e+00
 -5.373111e+00
 -5.373111e+00
 -5.373111e+00
 -5.373111e+00
 -5.373111e+00
 -5.373111e+00
 -5.373111e+00
 -5.373111e+00
 -5.373111e+00
 -5.373112e+00
 -5.373113e+00
 -5.373113e+00
 -2.930901e+01
 -2.888967e+01
 -2.780603e+01
 -2.634335e+01
 -2.467243e+01
 -2.288636e+01
 -2.103609e+01
 -1.915081e+01
 -1.724921e+01
 -1.534585e+01
 -1.345536e+01
 -1.159605e+01
 -9.794898e+00
 -8.097094e+00
 -6.582019e+00
 -5.370493e+00
 -4.570534e+00
 -4.145593e+00
 -3.939613e+00
 -3.852626e+00
 -3.819143e+00
 -3.803075e+00
 -3.795852e+00
 -3.792092e+00
 -3.789931e+00
 -3.788740e+00
 -3.788087e+00
 -3.787732e+00
 -3.787538e+00
 -3.787433e+00
 -3.787375e+00
 -3.787344e+00
 -3.787327e+00
 -3.787318e+00
 -3.787314e+00
 -3.787311e+00
 -3.787310e+00
 -3.787309e+00
 -3.787309e+00
 -3.787309e+00
 -3.787309e+00
 -3.787309e+00
 -3.787309e+00
 -3.787309e+00
 -3.787309e+00
 -3.787309e+00
 -3.787309e+00
 -3.787309e+00
 -3.787309e+00
 -3.787310e+00
 -3.787313e+00
 -2.889430e+01
 -2.848432e+01
 -2.741444e+01
 -2.595373e+01
 -2.427103e+01
 -2.245949e+01
 -2.056971e+01
 -1.862971e+01
 -1.665592e+01
 -1.465937e+01
 -1.264919e+01
 -1.063525e+01
 -8.631668e+00
 -6.666684e+00
 -4.814022e+00
 -3.278823e+00
 -2.393920e+00
 -2.114545e+00
 -1.995035e+00
 -1.985685e+00
 -1.999435e+00
 -1.995162e+00
 -1.999501e+00
 -1.999458e+00
 -1.999382e+00
 -1.999389e+00
 -1.999376e+00
 -1.999379e+00
 -1.999378e+00
 -1.999378e+00
 -1.999378e+00
 -1.999378e+00
 -1.999379e+00
 -1.999379e+00
 -1.999379e+00
 -1.999379e+00
 -1.999380e+00
 -1.999380e+00
 -1.999380e+00
 -1.999380e+00
 -1.999380e+00
 -1.999380e+00
 -1.999380e+00
 -1.999380e+00
 -1.999380e+00
 -1.999380e+00
 -1.999380e+00
 -1.999380e+00
 -1.999380e+00
 -1.999379e+00
 -1.999394e+00
 -2.838770e+01
 -2.798992e+01
 -2.694126e+01
 -2.549223e+01
 -2.380803e+01
 -2.198173e+01
 -2.006414e+01
 -1.808294e+01
 -1.605338e+01
 -1.398396e+01
 -1.187927e+01
 -9.740528e+00
 -7.564459e+00
 -5.340375e+00
 -3.058169e+00
 -8.262307e-01
 2.201601e-01
 -6.007438e-02
 1.517472e-02
 -4.411011e-03
 8.849460e-04
 -3.318692e-04
 -1.537618e-05
 -2.399001e-05
 -2.809108e-05
 -6.177472e-06
 -9.772851e-06
 -2.594776e-06
 -3.016506e-06
 -2.132582e-06
 -1.320137e-06
 -6.506455e-07
 -2.149134e-07
 -5.596495e-07
 -3.739531e-07
 -3.795521e-07
 -3.962436e-07
 -3.805039e-07
 -4.147219e-07
 -4.402571e-07
 -4.814252e-07
 -5.184112e-07
 -5.872660e-07
 -6.457233e-07
 -8.000768e-07
 -8.703869e-07
 -1.103049e-06
 -1.355725e-06
 -1.348725e-06
 -4.050744e-06
 5.920085e-05
 -2.779565e+01
 -2.741393e+01
 -2.639679e+01
 -2.497325e+01
 -2.330296e+01
 -2.147862e+01
 -1.955180e+01
 -1.755083e+01
 -1.549108e+01
 -1.338044e+01
 -1.122162e+01
 -9.011880e+00
 -6.739462e+00
 -4.371040e+00
 -1.781376e+00
 1.350719e+00
 1.669304e+00
 1.956386e+00
 1.999203e+00
 1.997364e+00
 1.996184e+00
 1.999961e+00
 1.998999e+00
 1.983252e+00
 1.999928e+00
 1.993034e+00
 1.999858e+00
 1.997088e+00
 1.999958e+00
 1.997591e+00
 1.998859e+00
 1.998713e+00
 1.999355e+00
 1.999695e+00
 1.999674e+00
 1.999733e+00
 1.999798e+00
 1.999827e+00
 1.999891e+00
 1.999906e+00
 1.999937e+00
 1.999978e+00
 1.999987e+00
 1.999993e+00
 1.999992e+00
 1.999996e+00
 1.999998e+00
 1.999995e+00
 2.000000e+00
 1.999951e+00
 1.999778e+00
 -2.711942e+01
 -2.675839e+01
 -2.578512e+01
 -2.440385e+01
 -2.276637e+01
 -2.096444e+01
 -1.905076e+01
 -1.705516e+01
 -1.499448e+01
 -1.287800e+01
 -1.070994e+01
 -8.489708e+00
 -6.211002e+00
 -3.867247e+00
 -1.535742e+00
 1.728673e+00
 2.551448e+00
 3.096228e+00
 3.427232e+00
 3.621883e+00
 3.744517e+00
 3.825821e+00
 3.878450e+00
 3.912249e+00
 3.939902e+00
 3.957869e+00
 3.971293e+00
 3.979926e+00
 3.986116e+00
 3.989851e+00
 3.992754e+00
 3.994844e+00
 3.996448e+00
 3.997587e+00
 3.998310e+00
 3.998801e+00
 3.999151e+00
 3.999399e+00
 3.999581e+00
 3.999708e+00
 3.999803e+00
 3.999875e+00
 3.999922e+00
 3.999950e+00
 3.999966e+00
 3.999976e+00
 3.999979e+00
 3.999975e+00
 3.999961e+00
 3.999922e+00
 3.999883e+00
 -2.635559e+01
 -2.601994e+01
 -2.510355e+01
 -2.378275e+01
 -2.219865e+01
 -2.044116e+01
 -1.856412e+01
 -1.659939e+01
 -1.456620e+01
 -1.247661e+01
 -1.033857e+01
 -8.157163e+00
 -5.933406e+00
 -3.652916e+00
 -1.209347e+00
 1.935466e+00
 2.998449e+00
 3.881272e+00
 4.540449e+00
 5.001036e+00
 5.315608e+00
 5.529805e+00
 5.675320e+00
 5.774636e+00
 5.843848e+00
 5.891884e+00
 5.925264e+00
 5.948272e+00
 5.964111e+00
 5.974943e+00
 5.982477e+00
 5.987772e+00
 5.991514e+00
 5.994136e+00
 5.995940e+00
 5.997181e+00
 5.998042e+00
 5.998643e+00
 5.999064e+00
 5.999360e+00
 5.999570e+00
 5.999717e+00
 5.999817e+00
 5.999883e+00
 5.999923e+00
 5.999945e+00
 5.999952e+00
 5.999948e+00
 5.999932e+00
 5.999908e+00
 5.999894e+00
 -2.549759e+01
 -2.519123e+01
 -2.434346e+01
 -2.310068e+01
 -2.159037e+01
 -1.989906e+01
 -1.808129e+01
 -1.617103e+01
 -1.419009e+01
 -1.215358e+01
 -1.007360e+01
 -7.961956e+00
 -5.833785e+00
 -3.717561e+00
 -1.706331e+00
 1.625046e+00
 3.042930e+00
 4.280161e+00
 5.300366e+00
 6.086443e+00
 6.661893e+00
 7.070434e+00
 7.355807e+00
 7.553771e+00
 7.691027e+00
 7.786171e+00
 7.852081e+00
 7.897667e+00
 7.929151e+00
 7.950878e+00
 7.965910e+00
 7.976349e+00
 7.983615e+00
 7.988668e+00
 7.992169e+00
 7.994591e+00
 7.996269e+00
 7.997433e+00
 7.998243e+00
 7.998808e+00
 7.999201e+00
 7.999474e+00
 7.999660e+00
 7.999783e+00
 7.999860e+00
 7.999901e+00
 7.999917e+00
 7.999913e+00
 7.999898e+00
 7.999880e+00
 7.999872e+00
 -2.453822e+01
 -2.426342e+01
 -2.349268e+01
 -2.234256e+01
 -2.092416e+01
 -1.931875e+01
 -1.758062e+01
 -1.574530e+01
 -1.383677e+01
 -1.187245e+01
 -9.866827e+00
 -7.834365e+00
 -5.793449e+00
 -3.777169e+00
 -1.868395e+00
 1.150117e+00
 2.827666e+00
 4.378269e+00
 5.737802e+00
 6.865041e+00
 7.748336e+00
 8.408496e+00
 8.885796e+00
 9.224051e+00
 9.461174e+00
 9.626451e+00
 9.741286e+00
 9.820909e+00
 9.876040e+00
 9.914185e+00
 9.940581e+00
 9.958866e+00
 9.971542e+00
 9.980332e+00
 9.986422e+00
 9.990640e+00
 9.993562e+00
 9.995587e+00
 9.996992e+00
 9.997968e+00
 9.998645e+00
 9.999112e+00
 9.999430e+00
 9.999640e+00
 9.999771e+00
 9.999843e+00
 9.999871e+00
 9.999869e+00
 9.999851e+00
 9.999833e+00
 9.999825e+00
 -2.347236e+01
 -2.322933e+01
 -2.253909e+01
 -2.149098e+01
 -2.017818e+01
 -1.867465e+01
 -1.703298e+01
 -1.528942e+01
 -1.346926e+01
 -1.159119e+01
 -9.670107e+00
 -7.718634e+00
 -5.746189e+00
 -3.749695e+00
 -1.659975e+00
 5.564469e-01
 2.511265e+00
 4.319299e+00
 5.959100e+00
 7.390964e+00
 8.582741e+00
 9.525627e+00
 1.023874e+01
 1.076020e+01
 1.113320e+01
 1.139645e+01
 1.158078e+01
 1.170925e+01
 1.179853e+01
 1.186046e+01
 1.190340e+01
 1.193315e+01
 1.195377e+01
 1.196805e+01
 1.197796e+01
 1.198482e+01
 1.198957e+01
 1.199286e+01
 1.199515e+01
 1.199673e+01
 1.199783e+01
 1.199859e+01
 1.199910e+01
 1.199944e+01
 1.199965e+01
 1.199977e+01
 1.199981e+01
 1.199981e+01
 1.199979e+01
 1.199977e+01
 1.199976e+01
 -2.229917e+01
 -2.208608e+01
 -2.147438e+01
 -2.053077e+01
 -1.933082e+01
 -1.793957e+01
 -1.640640e+01
 -1.476710e+01
 -1.304748e+01
 -1.126679e+01
 -9.439914e+00
 -7.578155e+00
 -5.688184e+00
 -3.769061e+00
 -1.809811e+00
 1.703791e-01
 2.250178e+00
 4.239435e+00
 6.090253e+00
 7.764018e+00
 9.223163e+00
 1.043992e+01
 1.140768e+01
 1.214504e+01
 1.268841e+01
 1.307975e+01
 1.335745e+01
 1.355273e+01
 1.368928e+01
 1.378442e+01
 1.385057e+01
 1.389651e+01
 1.392838e+01
 1.395049e+01
 1.396583e+01
 1.397646e+01
 1.398383e+01
 1.398895e+01
 1.399249e+01
 1.399495e+01
 1.399666e+01
 1.399783e+01
 1.399863e+01
 1.399916e+01
 1.399949e+01
 1.399967e+01
 1.399974e+01
 1.399975e+01
 1.399972e+01
 1.399969e+01
 1.399968e+01
 -2.102292e+01
 -2.083645e+01
 -2.029667e+01
 -1.945307e+01
 -1.836572e+01
 -1.709018e+01
 -1.567140e+01
 -1.414357e+01
 -1.253223e+01
 -1.085684e+01
 -9.132675e+00
 -7.371813e+00
 -5.583244e+00
 -3.776088e+00
 -1.993150e+00
 -1.095317e-01
 2.110912e+00
 4.234405e+00
 6.235348e+00
 8.086137e+00
 9.753508e+00
 1.120389e+01
 1.241334e+01
 1.337770e+01
 1.411580e+01
 1.466267e+01
 1.505860e+01
 1.534089e+01
 1.554017e+01
 1.567997e+01
 1.577764e+01
 1.584571e+01
 1.589307e+01
 1.592600e+01
 1.594887e+01
 1.596475e+01
 1.597577e+01
 1.598343e+01
 1.598875e+01
 1.599244e+01
 1.599500e+01
 1.599676e+01
 1.599796e+01
 1.599876e+01
 1.599925e+01
 1.599953e+01
 1.599966e+01
 1.599968e+01
 1.599965e+01
 1.599961e+01
 1.599959e+01
 -1.965256e+01
 -1.948864e+01
 -1.901122e+01
 -1.825764e+01
 -1.727561e+01
 -1.611194e+01
 -1.480654e+01
 -1.339111e+01
 -1.189014e+01
 -1.032280e+01
 -8.704772e+00
 -7.049715e+00
 -5.369393e+00
 -3.666015e+00
 -1.869345e+00
 -1.468332e-01
 2.169679e+00
 4.374763e+00
 6.468538e+00
 8.436651e+00
 1.025268e+01
 1.188399e+01
 1.329909e+01
 1.447725e+01
 1.541703e+01
 1.613802e+01
 1.667415e+01
 1.706389e+01
 1.734286e+01
 1.754050e+01
 1.767958e+01
 1.777703e+01
 1.784511e+01
 1.789258e+01
 1.792564e+01
 1.794865e+01
 1.796466e+01
 1.797580e+01
 1.798355e+01
 1.798893e+01
 1.799267e+01
 1.799525e+01
 1.799701e+01
 1.799818e+01
 1.799892e+01
 1.799935e+01
 1.799955e+01
 1.799960e+01
 1.799958e+01
 1.799953e+01
 1.799951e+01
 -1.820036e+01
 -1.805478e+01
 -1.762906e+01
 -1.695240e+01
 -1.606347e+01
 -1.500178e+01
 -1.380240e+01
 -1.249408e+01
 -1.109955e+01
 -9.636840e+00
 -8.121028e+00
 -6.566380e+00
 -4.990373e+00
 -3.424811e+00
 -1.948187e+00
 1.871195e-01
 2.490771e+00
 4.706295e+00
 6.836290e+00
 8.868696e+00
 1.078031e+01
 1.254067e+01
 1.411640e+01
 1.547789e+01
 1.660788e+01
 1.750805e+01
 1.819912e+01
 1.871415e+01
 1.908969e+01
 1.935936e+01
 1.955103e+01
 1.968631e+01
 1.978135e+01
 1.984793e+01
 1.989446e+01
 1.992695e+01
 1.994961e+01
 1.996541e+01
 1.997643e+01
 1.998410e+01
 1.998943e+01
 1.999313e+01
 1.999565e+01
 1.999735e+01
 1.999843e+01
 1.999908e+01
 1.999940e+01
 1.999952e+01
 1.999952e+01
 1.999948e+01
 1.999947e+01
 -1.668018e+01
 -1.654907e+01
 -1.616469e+01
 -1.555109e+01
 -1.474069e+01
 -1.376747e+01
 -1.266234e+01
 -1.145108e+01
 -1.015427e+01
 -8.788066e+00
 -7.365401e+00
 -5.897188e+00
 -4.394365e+00
 -2.880266e+00
 -1.431691e+00
 8.957501e-01
 3.071788e+00
 5.237126e+00
 7.357266e+00
 9.411209e+00
 1.137494e+01
 1.321945e+01
 1.491188e+01
 1.641924e+01
 1.771474e+01
 1.878515e+01
 1.963555e+01
 2.028803e+01
 2.077483e+01
 2.113054e+01
 2.138665e+01
 2.156920e+01
 2.169841e+01
 2.178945e+01
 2.185338e+01
 2.189820e+01
 2.192956e+01
 2.195150e+01
 2.196683e+01
 2.197754e+01
 2.198500e+01
 2.199018e+01
 2.199374e+01
 2.199615e+01
 2.199771e+01
 2.199867e+01
 2.199919e+01
 2.199942e+01
 2.199948e+01
 2.199947e+01
 2.199946e+01
 -1.510598e+01
 -1.498596e+01
 -1.463367e+01
 -1.407005e+01
 -1.332355e+01
 -1.242420e+01
 -1.139958e+01
 -1.027290e+01
 -9.062613e+00
 -7.782848e+00
 -6.444301e+00
 -5.053831e+00
 -3.611618e+00
 -2.078924e+00
 -4.248111e-01
 1.756639e+00
 3.843280e+00
 5.943626e+00
 8.028254e+00
 1.007424e+01
 1.205742e+01
 1.395023e+01
 1.572142e+01
 1.733777e+01
 1.876811e+01
 1.998937e+01
 2.099279e+01
 2.178702e+01
 2.239543e+01
 2.284945e+01
 2.318170e+01
 2.342144e+01
 2.359276e+01
 2.371435e+01
 2.380026e+01
 2.386077e+01
 2.390330e+01
 2.393315e+01
 2.395409e+01
 2.396875e+01
 2.397901e+01
 2.398615e+01
 2.399109e+01
 2.399445e+01
 2.399667e+01
 2.399806e+01
 2.399887e+01
 2.399928e+01
 2.399945e+01
 2.399950e+01
 2.399950e+01
 -1.349075e+01
 -1.337894e+01
 -1.305076e+01
 -1.252563e+01
 -1.182969e+01
 -1.099032e+01
 -1.003258e+01
 -8.977590e+00
 -7.842058e+00
 -6.638326e+00
 -5.375624e+00
 -4.062959e+00
 -2.695371e+00
 -1.340131e+00
 7.705622e-01
 2.743509e+00
 4.762844e+00
 6.798623e+00
 8.836326e+00
 1.085628e+01
 1.283610e+01
 1.475021e+01
 1.656962e+01
 1.826257e+01
 1.979688e+01
 2.114425e+01
 2.228595e+01
 2.321800e+01
 2.395245e+01
 2.451379e+01
 2.493252e+01
 2.523924e+01
 2.546097e+01
 2.561979e+01
 2.573282e+01
 2.581290e+01
 2.586947e+01
 2.590935e+01
 2.593743e+01
 2.595717e+01
 2.597102e+01
 2.598071e+01
 2.598744e+01
 2.599206e+01
 2.599517e+01
 2.599717e+01
 2.599839e+01
 2.599907e+01
 2.599941e+01
 2.599954e+01
 2.599958e+01
 -1.184596e+01
 -1.173988e+01
 -1.142894e+01
 -1.093241e+01
 -1.027555e+01
 -9.484013e+00
 -8.580770e+00
 -7.585299e+00
 -6.513382e+00
 -5.375825e+00
 -4.178668e+00
 -2.928455e+00
 -1.695949e+00
 7.016693e-02
 1.997694e+00
 3.876348e+00
 5.812615e+00
 7.781912e+00
 9.767136e+00
 1.175047e+01
 1.371168e+01
 1.562758e+01
 1.747171e+01
 1.921462e+01
 2.082506e+01
 2.227281e+01
 2.353317e+01
 2.459226e+01
 2.545082e+01
 2.612403e+01
 2.663717e+01
 2.701966e+01
 2.730001e+01
 2.750301e+01
 2.764874e+01
 2.775273e+01
 2.782662e+01
 2.787897e+01
 2.791600e+01
 2.794213e+01
 2.796055e+01
 2.797349e+01
 2.798254e+01
 2.798880e+01
 2.799306e+01
 2.799588e+01
 2.799766e+01
 2.799873e+01
 2.799931e+01
 2.799959e+01
 2.799967e+01
 -1.018148e+01
 -1.007883e+01
 -9.778904e+00
 -9.302381e+00
 -8.675026e+00
 -7.921320e+00
 -7.062075e+00
 -6.114907e+00
 -5.095819e+00
 -4.018400e+00
 -2.876259e+00
 -1.682472e+00
 -2.053453e-01
 1.533154e+00
 3.286736e+00
 5.105925e+00
 6.971692e+00
 8.876569e+00
 1.080723e+01
 1.274798e+01
 1.468073e+01
 1.658467e+01
 1.843599e+01
 2.020781e+01
 2.187084e+01
 2.339502e+01
 2.475281e+01
 2.592369e+01
 2.689887e+01
 2.768362e+01
 2.829579e+01
 2.876105e+01
 2.910751e+01
 2.936158e+01
 2.954583e+01
 2.967840e+01
 2.977324e+01
 2.984083e+01
 2.988887e+01
 2.992295e+01
 2.994707e+01
 2.996410e+01
 2.997607e+01
 2.998443e+01
 2.999018e+01
 2.999406e+01
 2.999660e+01
 2.999819e+01
 2.999911e+01
 2.999958e+01
 2.999972e+01
 -8.505889e+00
 -8.404238e+00
 -8.109019e+00
 -7.644517e+00
 -7.038825e+00
 -6.315391e+00
 -5.492221e+00
 -4.583315e+00
 -3.603776e+00
 -2.575420e+00
 -1.545084e+00
 -1.428814e-01
 1.417373e+00
 3.003818e+00
 4.682610e+00
 6.426712e+00
 8.225409e+00
 1.006857e+01
 1.194458e+01
 1.383967e+01
 1.573778e+01
 1.762033e+01
 1.946601e+01
 2.125056e+01
 2.294705e+01
 2.452679e+01
 2.596150e+01
 2.722692e+01
 2.830719e+01
 2.919863e+01
 2.991068e+01
 3.046327e+01
 3.088204e+01
 3.119357e+01
 3.142213e+01
 3.158813e+01
 3.170783e+01
 3.179370e+01
 3.185508e+01
 3.189885e+01
 3.192998e+01
 3.195207e+01
 3.196769e+01
 3.197868e+01
 3.198633e+01
 3.199158e+01
 3.199509e+01
 3.199736e+01
 3.199873e+01
 3.199946e+01
 3.199968e+01
 -6.827174e+00
 -6.723506e+00
 -6.425451e+00
 -5.964391e+00
 -5.374226e+00
 -4.676168e+00
 -3.884060e+00
 -3.010901e+00
 -2.042421e+00
 -1.068697e+00
 1.345872e-01
 1.551880e+00
 3.006663e+00
 4.541734e+00
 6.150576e+00
 7.827188e+00
 9.562313e+00
 1.134635e+01
 1.316862e+01
 1.501679e+01
 1.687655e+01
 1.873137e+01
 2.056220e+01
 2.234728e+01
 2.406211e+01
 2.567993e+01
 2.717310e+01
 2.851570e+01
 2.968730e+01
 3.067704e+01
 3.148621e+01
 3.212782e+01
 3.262329e+01
 3.299774e+01
 3.327606e+01
 3.348036e+01
 3.362898e+01
 3.373639e+01
 3.381365e+01
 3.386905e+01
 3.390867e+01
 3.393693e+01
 3.395704e+01
 3.397128e+01
 3.398129e+01
 3.398825e+01
 3.399299e+01
 3.399613e+01
 3.399808e+01
 3.399914e+01
 3.399948e+01
 -5.153982e+00
 -5.043919e+00
 -4.732759e+00
 -4.263079e+00
 -3.684031e+00
 -3.014797e+00
 -2.232584e+00
 -1.441457e+00
 -4.334228e-01
 7.084702e-01
 1.955757e+00
 3.257803e+00
 4.655890e+00
 6.131452e+00
 7.679961e+00
 9.295893e+00
 1.097204e+01
 1.269997e+01
 1.447006e+01
 1.627121e+01
 1.809065e+01
 1.991362e+01
 2.172311e+01
 2.349964e+01
 2.522107e+01
 2.686276e+01
 2.839845e+01
 2.980202e+01
 3.105050e+01
 3.212784e+01
 3.302832e+01
 3.375779e+01
 3.433219e+01
 3.477370e+01
 3.510656e+01
 3.535380e+01
 3.553541e+01
 3.566774e+01
 3.576361e+01
 3.583277e+01
 3.588250e+01
 3.591819e+01
 3.594372e+01
 3.596192e+01
 3.597483e+01
 3.598390e+01
 3.599017e+01
 3.599439e+01
 3.599706e+01
 3.599853e+01
 3.599900e+01
 -3.498393e+00
 -3.373476e+00
 -3.036255e+00
 -2.537311e+00
 -1.950745e+00
 -1.370896e+00
 -5.310449e-01
 4.223547e-01
 1.460673e+00
 2.552843e+00
 3.738851e+00
 5.003675e+00
 6.348263e+00
 7.769780e+00
 9.263495e+00
 1.082425e+01
 1.244583e+01
 1.412086e+01
 1.584075e+01
 1.759556e+01
 1.937386e+01
 2.116245e+01
 2.294615e+01
 2.470750e+01
 2.642652e+01
 2.808073e+01
 2.964559e+01
 3.109569e+01
 3.240703e+01
 3.356020e+01
 3.454395e+01
 3.535754e+01
 3.601087e+01
 3.652197e+01
 3.691320e+01
 3.720754e+01
 3.742608e+01
 3.758675e+01
 3.770404e+01
 3.778922e+01
 3.785086e+01
 3.789532e+01
 3.792733e+01
 3.795029e+01
 3.796670e+01
 3.797833e+01
 3.798646e+01
 3.799199e+01
 3.799555e+01
 3.799753e+01
 3.799817e+01
 -1.882193e+00
 -1.709468e+00
 -1.346934e+00
 -7.821432e-01
 -1.581333e-01
 5.742657e-01
 1.441658e+00
 2.353495e+00
 3.346920e+00
 4.413456e+00
 5.557757e+00
 6.779898e+00
 8.078573e+00
 9.451584e+00
 1.089540e+01
 1.240551e+01
 1.397645e+01
 1.560169e+01
 1.727357e+01
 1.898321e+01
 2.072035e+01
 2.247320e+01
 2.422815e+01
 2.596953e+01
 2.767934e+01
 2.933713e+01
 3.092020e+01
 3.240438e+01
 3.376565e+01
 3.498276e+01
 3.604043e+01
 3.693236e+01
 3.766249e+01
 3.824399e+01
 3.869622e+01
 3.904114e+01
 3.930022e+01
 3.949256e+01
 3.963413e+01
 3.973769e+01
 3.981310e+01
 3.986784e+01
 3.990746e+01
 3.993606e+01
 3.995663e+01
 3.997132e+01
 3.998169e+01
 3.998881e+01
 3.999342e+01
 3.999601e+01
 3.999685e+01
 8.258194e-02
 2.968249e-01
 6.872573e-01
 1.276784e+00
 1.914826e+00
 2.618015e+00
 3.422454e+00
 4.305613e+00
 5.263736e+00
 6.296431e+00
 7.404158e+00
 8.586948e+00
 9.843788e+00
 1.117272e+01
 1.257081e+01
 1.403414e+01
 1.555789e+01
 1.713625e+01
 1.876236e+01
 2.042828e+01
 2.212480e+01
 2.384135e+01
 2.556569e+01
 2.728374e+01
 2.897925e+01
 3.063365e+01
 3.222607e+01
 3.373382e+01
 3.513353e+01
 3.640319e+01
 3.752492e+01
 3.848800e+01
 3.929101e+01
 3.994200e+01
 4.045657e+01
 4.085468e+01
 4.115741e+01
 4.138452e+01
 4.155319e+01
 4.167752e+01
 4.176866e+01
 4.183523e+01
 4.188369e+01
 4.191889e+01
 4.194435e+01
 4.196266e+01
 4.197567e+01
 4.198466e+01
 4.199054e+01
 4.199385e+01
 4.199493e+01
 2.456103e+00
 2.582244e+00
 2.911616e+00