<?xml version="1.0"?>
<VTKFile type="UnstructuredGrid" version="0.1">
<UnstructuredGrid>
<FieldData>
<DataArray Name="TIME" type="Float64" format="ascii" NumberOfTuples="1">
0.000000e+00
</DataArray>
</FieldData>
<FieldData>
<DataArray Name="CYCLE" type="Int32" format="ascii" NumberOfTuples="1">
0
</DataArray>
</FieldData>
<Piece NumberOfPoints="8" NumberOfCells="1">
<Points>
<DataArray NumberOfComponents="3" type="Float64" format="ascii">
0.000000e+00 0.000000e+00 0.000000e+00
5.000000e-01 0.000000e+00 0.000000e+00
1.000000e+00 0.000000e+00 0.000000e+00
0.000000e+00 5.000000e-01 0.000000e+00
1.000000e+00 5.000000e-01 0.000000e+00
0.000000e+00 1.000000e+00 0.000000e+00
5.000000e-01 1.000000e+00 0.000000e+00
1.000000e+00 1.000000e+00 0.000000e+00
</DataArray>
</Points>
<Cells>
<DataArray Name="connectivity" type="Int32" format="ascii">
0 2 7 5
</DataArray>
<DataArray Name="offsets" type="Int32" format="ascii">
4
</DataArray>
<DataArray Name="types" type="UInt8" format="ascii">
9
</DataArray>
</Cells>
<CellData>
<DataArray Name="data_s" type="Float64" NumberOfComponents="1" format="ascii">
5.000000e-01
</DataArray>
<DataArray Name="data_v" type="Float64" NumberOfComponents="3" format="ascii">
5.000000e-01 1.000000e+00 0.000000e+00
</DataArray>
<DataArray Name="data_t2" type="Float64" NumberOfComponents="9" format="ascii">
-5.500000e+00 -1.050000e+01 0.000000e+00 -6.000000e+00 -1.100000e+01 0.000000e+00 0.000000e+00 0.000000e+00 0.000000e+00
</DataArray>
<DataArray Name="data_t" type="Float64" NumberOfComponents="9" format="ascii">
5.500000e+00 1.050000e+01 0.000000e+00 6.000000e+00 1.100000e+01 0.000000e+00 0.000000e+00 0.000000e+00 0.000000e+00
</DataArray>
</CellData>
</Piece>
</UnstructuredGrid>
</VTKFile>
