<?xml version="1.0"?>
<VTKFile type="UnstructuredGrid" version="0.1">
<UnstructuredGrid>
<FieldData>
<DataArray Name="TIME" type="Float64" format="ascii" NumberOfTuples="1">
0.000000e+00
</DataArray>
</FieldData>
<FieldData>
<DataArray Name="CYCLE" type="Int32" format="ascii" NumberOfTuples="1">
0
</DataArray>
</FieldData>
<Piece NumberOfPoints="53" NumberOfCells="80">
<Points>
<DataArray NumberOfComponents="3" type="Float64" format="ascii">
1.000000e+00 1.000000e+00 0.000000e+00
1.000000e+00 6.666667e-01 0.000000e+00
1.000000e+00 8.333333e-01 0.000000e+00
1.000000e+00 3.333333e-01 0.000000e+00
1.000000e+00 5.000000e-01 0.000000e+00
1.000000e+00 0.000000e+00 0.000000e+00
1.000000e+00 1.666667e-01 0.000000e+00
6.666667e-01 0.000000e+00 0.000000e+00
8.333333e-01 0.000000e+00 0.000000e+00
3.333333e-01 0.000000e+00 0.000000e+00
5.000000e-01 0.000000e+00 0.000000e+00
0.000000e+00 0.000000e+00 0.000000e+00
1.666667e-01 0.000000e+00 0.000000e+00
0.000000e+00 1.000000e+00 0.000000e+00
0.000000e+00 6.666667e-01 0.000000e+00
0.000000e+00 8.333333e-01 0.000000e+00
0.000000e+00 3.333333e-01 0.000000e+00
0.000000e+00 5.000000e-01 0.000000e+00
0.000000e+00 1.666667e-01 0.000000e+00
3.333333e-01 1.000000e+00 0.000000e+00
1.666667e-01 1.000000e+00 0.000000e+00
6.666667e-01 1.000000e+00 0.000000e+00
5.000000e-01 1.000000e+00 0.000000e+00
8.333333e-01 1.000000e+00 0.000000e+00
7.014658e-01 2.986558e-01 0.000000e+00
3.239390e-01 2.773111e-01 0.000000e+00
6.840662e-01 1.493279e-01 0.000000e+00
4.953028e-01 1.386555e-01 0.000000e+00
5.127023e-01 2.879834e-01 0.000000e+00
3.286361e-01 1.386555e-01 0.000000e+00
3.050581e-01 6.950284e-01 0.000000e+00
1.619695e-01 3.053222e-01 0.000000e+00
1.525290e-01 5.141808e-01 0.000000e+00
3.144985e-01 4.861697e-01 0.000000e+00
1.525290e-01 6.808475e-01 0.000000e+00
7.227778e-01 6.761019e-01 0.000000e+00
6.947222e-01 8.380510e-01 0.000000e+00
5.139179e-01 6.855651e-01 0.000000e+00
4.858623e-01 8.475142e-01 0.000000e+00
8.507329e-01 3.159946e-01 0.000000e+00
7.121218e-01 4.873788e-01 0.000000e+00
8.613889e-01 5.047176e-01 0.000000e+00
3.191957e-01 8.475142e-01 0.000000e+00
8.613889e-01 6.713843e-01 0.000000e+00
5.000690e-01 5.000334e-01 0.000000e+00
6.007674e-01 3.993446e-01 0.000000e+00
4.120040e-01 3.886723e-01 0.000000e+00
1.525290e-01 8.475142e-01 0.000000e+00
8.613889e-01 8.380510e-01 0.000000e+00
8.507329e-01 1.493279e-01 0.000000e+00
4.025635e-01 5.975309e-01 0.000000e+00
6.114234e-01 5.880677e-01 0.000000e+00
1.619695e-01 1.386555e-01 0.000000e+00
</DataArray>
</Points>
<Cells>
<DataArray Name="connectivity" type="Int32" format="ascii">
21 23 36
36 48 35
23 0 48
48 36 23
0 2 48
48 43 35
2 1 43
43 48 2
1 4 43
43 41 35
4 3 41
41 43 4
3 39 41
41 40 35
39 24 40
40 41 39
3 6 39
39 49 24
6 5 49
49 39 6
5 8 49
49 26 24
8 7 26
26 49 8
24 26 28
28 27 25
26 7 27
27 28 26
7 10 27
27 29 25
10 9 29
29 27 10
9 12 29
29 52 25
12 11 52
52 29 12
11 18 52
52 31 25
18 16 31
31 52 18
13 20 47
47 42 30
20 19 42
42 47 20
14 15 34
34 47 30
15 13 47
47 34 15
16 17 32
32 34 30
17 14 34
34 32 17
25 31 33
33 32 30
31 16 32
32 33 31
19 22 42
42 38 30
22 21 38
38 42 22
21 36 38
38 37 30
36 35 37
37 38 36
44 45 46
46 28 25
45 24 28
28 46 45
24 45 40
40 51 35
45 44 51
51 40 45
44 46 50
50 33 30
46 25 33
33 50 46
35 51 37
37 50 30
51 44 50
50 37 51
</DataArray>
<DataArray Name="offsets" type="Int32" format="ascii">
3
6
9
12
15
18
21
24
27
30
33
36
39
42
45
48
51
54
57
60
63
66
69
72
75
78
81
84
87
90
93
96
99
102
105
108
111
114
117
120
123
126
129
132
135
138
141
144
147
150
153
156
159
162
165
168
171
174
177
180
183
186
189
192
195
198
201
204
207
210
213
216
219
222
225
228
231
234
237
240
</DataArray>
<DataArray Name="types" type="UInt8" format="ascii">
5
5
5
5
5
5
5
5
5
5
5
5
5
5
5
5
5
5
5
5
5
5
5
5
5
5
5
5
5
5
5
5
5
5
5
5
5
5
5
5
5
5
5
5
5
5
5
5
5
5
5
5
5
5
5
5
5
5
5
5
5
5
5
5
5
5
5
5
5
5
5
5
5
5
5
5
5
5
5
5
</DataArray>
</Cells>
<PointData>
<DataArray Name="data_tp" type="Float64" NumberOfComponents="9" format="ascii">
1.100000e+01 2.100000e+01 0.000000e+00 1.200000e+01 2.200000e+01 0.000000e+00 0.000000e+00 0.000000e+00 0.000000e+00
1.100000e+01 2.100000e+01 0.000000e+00 1.200000e+01 2.200000e+01 0.000000e+00 0.000000e+00 0.000000e+00 0.000000e+00
1.100000e+01 2.100000e+01 0.000000e+00 1.200000e+01 2.200000e+01 0.000000e+00 0.000000e+00 0.000000e+00 0.000000e+00
1.100000e+01 2.100000e+01 0.000000e+00 1.200000e+01 2.200000e+01 0.000000e+00 0.000000e+00 0.000000e+00 0.000000e+00
1.100000e+01 2.100000e+01 0.000000e+00 1.200000e+01 2.200000e+01 0.000000e+00 0.000000e+00 0.000000e+00 0.000000e+00
1.100000e+01 2.100000e+01 0.000000e+00 1.200000e+01 2.200000e+01 0.000000e+00 0.000000e+00 0.000000e+00 0.000000e+00
1.100000e+01 2.100000e+01 0.000000e+00 1.200000e+01 2.200000e+01 0.000000e+00 0.000000e+00 0.000000e+00 0.000000e+00
7.333333e+00 1.400000e+01 0.000000e+00 8.000000e+00 1.466667e+01 0.000000e+00 0.000000e+00 0.000000e+00 0.000000e+00
9.166667e+00 1.750000e+01 0.000000e+00 1.000000e+01 1.833333e+01 0.000000e+00 0.000000e+00 0.000000e+00 0.000000e+00
3.666667e+00 7.000000e+00 0.000000e+00 4.000000e+00 7.333333e+00 0.000000e+00 0.000000e+00 0.000000e+00 0.000000e+00
5.500000e+00 1.050000e+01 0.000000e+00 6.000000e+00 1.100000e+01 0.000000e+00 0.000000e+00 0.000000e+00 0.000000e+00
0.000000e+00 0.000000e+00 0.000000e+00 0.000000e+00 0.000000e+00 0.000000e+00 0.000000e+00 0.000000e+00 0.000000e+00
1.833333e+00 3.500000e+00 0.000000e+00 2.000000e+00 3.666667e+00 0.000000e+00 0.000000e+00 0.000000e+00 0.000000e+00
0.000000e+00 0.000000e+00 0.000000e+00 0.000000e+00 0.000000e+00 0.000000e+00 0.000000e+00 0.000000e+00 0.000000e+00
0.000000e+00 0.000000e+00 0.000000e+00 0.000000e+00 0.000000e+00 0.000000e+00 0.000000e+00 0.000000e+00 0.000000e+00
0.000000e+00 0.000000e+00 0.000000e+00 0.000000e+00 0.000000e+00 0.000000e+00 0.000000e+00 0.000000e+00 0.000000e+00
0.000000e+00 0.000000e+00 0.000000e+00 0.000000e+00 0.000000e+00 0.000000e+00 0.000000e+00 0.000000e+00 0.000000e+00
0.000000e+00 0.000000e+00 0.000000e+00 0.000000e+00 0.000000e+00 0.000000e+00 0.000000e+00 0.000000e+00 0.000000e+00
0.000000e+00 0.000000e+00 0.000000e+00 0.000000e+00 0.000000e+00 0.000000e+00 0.000000e+00 0.000000e+00 0.000000e+00
3.666667e+00 7.000000e+00 0.000000e+00 4.000000e+00 7.333333e+00 0.000000e+00 0.000000e+00 0.000000e+00 0.000000e+00
1.833333e+00 3.500000e+00 0.000000e+00 2.000000e+00 3.666667e+00 0.000000e+00 0.000000e+00 0.000000e+00 0.000000e+00
7.333333e+00 1.400000e+01 0.000000e+00 8.000000e+00 1.466667e+01 0.000000e+00 0.000000e+00 0.000000e+00 0.000000e+00
5.500000e+00 1.050000e+01 0.000000e+00 6.000000e+00 1.100000e+01 0.000000e+00 0.000000e+00 0.000000e+00 0.000000e+00
9.166667e+00 1.750000e+01 0.000000e+00 1.000000e+01 1.833333e+01 0.000000e+00 0.000000e+00 0.000000e+00 0.000000e+00
7.716124e+00 1.473078e+01 0.000000e+00 8.417589e+00 1.543225e+01 0.000000e+00 0.000000e+00 0.000000e+00 0.000000e+00
3.563329e+00 6.802718e+00 0.000000e+00 3.887268e+00 7.126657e+00 0.000000e+00 0.000000e+00 0.000000e+00 0.000000e+00
7.524728e+00 1.436539e+01 0.000000e+00 8.208795e+00 1.504946e+01 0.000000e+00 0.000000e+00 0.000000e+00 0.000000e+00
5.448331e+00 1.040136e+01 0.000000e+00 5.943634e+00 1.089666e+01 0.000000e+00 0.000000e+00 0.000000e+00 0.000000e+00
5.639726e+00 1.076675e+01 0.000000e+00 6.152429e+00 1.127945e+01 0.000000e+00 0.000000e+00 0.000000e+00 0.000000e+00
3.614998e+00 6.901359e+00 0.000000e+00 3.943634e+00 7.229995e+00 0.000000e+00 0.000000e+00 0.000000e+00 0.000000e+00
3.355639e+00 6.406219e+00 0.000000e+00 3.660697e+00 6.711277e+00 0.000000e+00 0.000000e+00 0.000000e+00 0.000000e+00
1.781664e+00 3.401359e+00 0.000000e+00 1.943634e+00 3.563329e+00 0.000000e+00 0.000000e+00 0.000000e+00 0.000000e+00
1.677819e+00 3.203110e+00 0.000000e+00 1.830348e+00 3.355639e+00 0.000000e+00 0.000000e+00 0.000000e+00 0.000000e+00
3.459484e+00 6.604469e+00 0.000000e+00 3.773982e+00 6.918967e+00 0.000000e+00 0.000000e+00 0.000000e+00 0.000000e+00
1.677819e+00 3.203110e+00 0.000000e+00 1.830348e+00 3.355639e+00 0.000000e+00 0.000000e+00 0.000000e+00 0.000000e+00
7.950556e+00 1.517833e+01 0.000000e+00 8.673333e+00 1.590111e+01 0.000000e+00 0.000000e+00 0.000000e+00 0.000000e+00
7.641944e+00 1.458917e+01 0.000000e+00 8.336667e+00 1.528389e+01 0.000000e+00 0.000000e+00 0.000000e+00 0.000000e+00
5.653097e+00 1.079228e+01 0.000000e+00 6.167015e+00 1.130619e+01 0.000000e+00 0.000000e+00 0.000000e+00 0.000000e+00
5.344486e+00 1.020311e+01 0.000000e+00 5.830348e+00 1.068897e+01 0.000000e+00 0.000000e+00 0.000000e+00 0.000000e+00
9.358062e+00 1.786539e+01 0.000000e+00 1.020879e+01 1.871612e+01 0.000000e+00 0.000000e+00 0.000000e+00 0.000000e+00
7.833340e+00 1.495456e+01 0.000000e+00 8.545462e+00 1.566668e+01 0.000000e+00 0.000000e+00 0.000000e+00 0.000000e+00
9.475278e+00 1.808917e+01 0.000000e+00 1.033667e+01 1.895056e+01 0.000000e+00 0.000000e+00 0.000000e+00 0.000000e+00
3.511153e+00 6.703110e+00 0.000000e+00 3.830348e+00 7.022305e+00 0.000000e+00 0.000000e+00 0.000000e+00 0.000000e+00
9.475278e+00 1.808917e+01 0.000000e+00 1.033667e+01 1.895056e+01 0.000000e+00 0.000000e+00 0.000000e+00 0.000000e+00
5.500759e+00 1.050145e+01 0.000000e+00 6.000828e+00 1.100152e+01 0.000000e+00 0.000000e+00 0.000000e+00 0.000000e+00
6.608441e+00 1.261612e+01 0.000000e+00 7.209208e+00 1.321688e+01 0.000000e+00 0.000000e+00 0.000000e+00 0.000000e+00
4.532044e+00 8.652083e+00 0.000000e+00 4.944048e+00 9.064088e+00 0.000000e+00 0.000000e+00 0.000000e+00 0.000000e+00
1.677819e+00 3.203110e+00 0.000000e+00 1.830348e+00 3.355639e+00 0.000000e+00 0.000000e+00 0.000000e+00 0.000000e+00
9.475278e+00 1.808917e+01 0.000000e+00 1.033667e+01 1.895056e+01 0.000000e+00 0.000000e+00 0.000000e+00 0.000000e+00
9.358062e+00 1.786539e+01 0.000000e+00 1.020879e+01 1.871612e+01 0.000000e+00 0.000000e+00 0.000000e+00 0.000000e+00
4.428199e+00 8.453834e+00 0.000000e+00 4.830762e+00 8.856398e+00 0.000000e+00 0.000000e+00 0.000000e+00 0.000000e+00
6.725657e+00 1.283989e+01 0.000000e+00 7.337081e+00 1.345131e+01 0.000000e+00 0.000000e+00 0.000000e+00 0.000000e+00
1.781664e+00 3.401359e+00 0.000000e+00 1.943634e+00 3.563329e+00 0.000000e+00 0.000000e+00 0.000000e+00 0.000000e+00
</DataArray>
<DataArray Name="data_vp" type="Float64" NumberOfComponents="3" format="ascii">
1.000000e+00 2.000000e+00 0.000000e+00
1.000000e+00 2.000000e+00 0.000000e+00
1.000000e+00 2.000000e+00 0.000000e+00
1.000000e+00 2.000000e+00 0.000000e+00
1.000000e+00 2.000000e+00 0.000000e+00
1.000000e+00 2.000000e+00 0.000000e+00
1.000000e+00 2.000000e+00 0.000000e+00
6.666667e-01 1.333333e+00 0.000000e+00
8.333333e-01 1.666667e+00 0.000000e+00
3.333333e-01 6.666667e-01 0.000000e+00
5.000000e-01 1.000000e+00 0.000000e+00
0.000000e+00 0.000000e+00 0.000000e+00
1.666667e-01 3.333333e-01 0.000000e+00
0.000000e+00 0.000000e+00 0.000000e+00
0.000000e+00 0.000000e+00 0.000000e+00
0.000000e+00 0.000000e+00 0.000000e+00
0.000000e+00 0.000000e+00 0.000000e+00
0.000000e+00 0.000000e+00 0.000000e+00
0.000000e+00 0.000000e+00 0.000000e+00
3.333333e-01 6.666667e-01 0.000000e+00
1.666667e-01 3.333333e-01 0.000000e+00
6.666667e-01 1.333333e+00 0.000000e+00
5.000000e-01 1.000000e+00 0.000000e+00
8.333333e-01 1.666667e+00 0.000000e+00
7.014658e-01 1.402932e+00 0.000000e+00
3.239390e-01 6.478779e-01 0.000000e+00
6.840662e-01 1.368132e+00 0.000000e+00
4.953028e-01 9.906057e-01 0.000000e+00
5.127023e-01 1.025405e+00 0.000000e+00
3.286361e-01 6.572723e-01 0.000000e+00
3.050581e-01 6.101161e-01 0.000000e+00
1.619695e-01 3.239390e-01 0.000000e+00
1.525290e-01 3.050581e-01 0.000000e+00
3.144985e-01 6.289970e-01 0.000000e+00
1.525290e-01 3.050581e-01 0.000000e+00
7.227778e-01 1.445556e+00 0.000000e+00
6.947222e-01 1.389444e+00 0.000000e+00
5.139179e-01 1.027836e+00 0.000000e+00
4.858623e-01 9.717247e-01 0.000000e+00
8.507329e-01 1.701466e+00 0.000000e+00
7.121218e-01 1.424244e+00 0.000000e+00
8.613889e-01 1.722778e+00 0.000000e+00
3.191957e-01 6.383914e-01 0.000000e+00
8.613889e-01 1.722778e+00 0.000000e+00
5.000690e-01 1.000138e+00 0.000000e+00
6.007674e-01 1.201535e+00 0.000000e+00
4.120040e-01 8.240079e-01 0.000000e+00
1.525290e-01 3.050581e-01 0.000000e+00
8.613889e-01 1.722778e+00 0.000000e+00
8.507329e-01 1.701466e+00 0.000000e+00
4.025635e-01 8.051270e-01 0.000000e+00
6.114234e-01 1.222847e+00 0.000000e+00
1.619695e-01 3.239390e-01 0.000000e+00
</DataArray>
<DataArray Name="data_sp" type="Float64" NumberOfComponents="1" format="ascii">
1.000000e+00
1.000000e+00
1.000000e+00
1.000000e+00
1.000000e+00
1.000000e+00
1.000000e+00
6.666667e-01
8.333333e-01
3.333333e-01
5.000000e-01
0.000000e+00
1.666667e-01
0.000000e+00
0.000000e+00
0.000000e+00
0.000000e+00
0.000000e+00
0.000000e+00
3.333333e-01
1.666667e-01
6.666667e-01
5.000000e-01
8.333333e-01
7.014658e-01
3.239390e-01
6.840662e-01
4.953028e-01
5.127023e-01
3.286361e-01
3.050581e-01
1.619695e-01
1.525290e-01
3.144985e-01
1.525290e-01
7.227778e-01
6.947222e-01
5.139179e-01
4.858623e-01
8.507329e-01
7.121218e-01
8.613889e-01
3.191957e-01
8.613889e-01
5.000690e-01
6.007674e-01
4.120040e-01
1.525290e-01
8.613889e-01
8.507329e-01
4.025635e-01
6.114234e-01
1.619695e-01
</DataArray>
<DataArray Name="mesh_vars/Nodes_Id" type="Float64" NumberOfComponents="1" format="ascii">
0.000000e+00
1.000000e+00
2.000000e+00
3.000000e+00
4.000000e+00
5.000000e+00
6.000000e+00
7.000000e+00
8.000000e+00
9.000000e+00
1.000000e+01
1.100000e+01
1.200000e+01
1.300000e+01
1.400000e+01
1.500000e+01
1.600000e+01
1.700000e+01
1.800000e+01
1.900000e+01
2.000000e+01
2.100000e+01
2.200000e+01
2.300000e+01
2.400000e+01
2.500000e+01
2.600000e+01
2.700000e+01
2.800000e+01
2.900000e+01
3.000000e+01
3.100000e+01
3.200000e+01
3.300000e+01
3.400000e+01
3.500000e+01
3.600000e+01
3.700000e+01
3.800000e+01
3.900000e+01
4.000000e+01
4.100000e+01
4.200000e+01
4.300000e+01
4.400000e+01
4.500000e+01
4.600000e+01
4.700000e+01
4.800000e+01
4.900000e+01
5.000000e+01
5.100000e+01
5.200000e+01
</DataArray>
<DataArray Name="mesh_vars/Nodes_Tag" type="Float64" NumberOfComponents="1" format="ascii">
0.000000e+00
0.000000e+00
0.000000e+00
0.000000e+00
0.000000e+00
0.000000e+00
0.000000e+00
0.000000e+00
0.000000e+00
0.000000e+00
0.000000e+00
0.000000e+00
0.000000e+00
0.000000e+00
0.000000e+00
0.000000e+00
0.000000e+00
0.000000e+00
0.000000e+00
0.000000e+00
0.000000e+00
0.000000e+00
0.000000e+00
0.000000e+00
0.000000e+00
0.000000e+00
0.000000e+00
0.000000e+00
0.000000e+00
0.000000e+00
0.000000e+00
0.000000e+00
0.000000e+00
0.000000e+00
0.000000e+00
0.000000e+00
0.000000e+00
0.000000e+00
0.000000e+00
0.000000e+00
0.000000e+00
0.000000e+00
0.000000e+00
0.000000e+00
0.000000e+00
0.000000e+00
0.000000e+00
0.000000e+00
0.000000e+00
0.000000e+00
0.000000e+00
0.000000e+00
0.000000e+00
</DataArray>
<DataArray Name="mesh_vars/Nodes_gDOF" type="Float64" NumberOfComponents="1" format="ascii">
0.000000e+00
1.000000e+00
2.000000e+00
3.000000e+00
4.000000e+00
5.000000e+00
6.000000e+00
7.000000e+00
8.000000e+00
9.000000e+00
1.000000e+01
1.100000e+01
1.200000e+01
1.300000e+01
1.400000e+01
1.500000e+01
1.600000e+01
1.700000e+01
1.800000e+01
1.900000e+01
2.000000e+01
2.100000e+01
2.200000e+01
2.300000e+01
2.400000e+01
2.500000e+01
2.600000e+01
2.700000e+01
2.800000e+01
2.900000e+01
3.000000e+01
3.100000e+01
3.200000e+01
3.300000e+01
3.400000e+01
3.500000e+01
3.600000e+01
3.700000e+01
3.800000e+01
3.900000e+01
4.000000e+01
4.100000e+01
4.200000e+01
4.300000e+01
4.400000e+01
4.500000e+01
4.600000e+01
4.700000e+01
4.800000e+01
4.900000e+01
5.000000e+01
5.100000e+01
5.200000e+01
</DataArray>
<DataArray Name="mesh_vars/Nodes_gNI" type="Float64" NumberOfComponents="1" format="ascii">
0.000000e+00
1.000000e+00
2.000000e+00
3.000000e+00
4.000000e+00
5.000000e+00
6.000000e+00
7.000000e+00
8.000000e+00
9.000000e+00
1.000000e+01
1.100000e+01
1.200000e+01
1.300000e+01
1.400000e+01
1.500000e+01
1.600000e+01
1.700000e+01
1.800000e+01
1.900000e+01
2.000000e+01
2.100000e+01
2.200000e+01
2.300000e+01
2.400000e+01
2.500000e+01
2.600000e+01
2.700000e+01
2.800000e+01
2.900000e+01
3.000000e+01
3.100000e+01
3.200000e+01
3.300000e+01
3.400000e+01
3.500000e+01
3.600000e+01
3.700000e+01
3.800000e+01
3.900000e+01
4.000000e+01
4.100000e+01
4.200000e+01
4.300000e+01
4.400000e+01
4.500000e+01
4.600000e+01
4.700000e+01
4.800000e+01
4.900000e+01
5.000000e+01
5.100000e+01
5.200000e+01
</DataArray>
<DataArray Name="mesh_vars/Nodes_grDfI" type="Float64" NumberOfComponents="1" format="ascii">
0.000000e+00
1.000000e+00
-1.000000e+00
2.000000e+00
-1.000000e+00
3.000000e+00
-1.000000e+00
4.000000e+00
-1.000000e+00
5.000000e+00
-1.000000e+00
6.000000e+00
-1.000000e+00
7.000000e+00
8.000000e+00
-1.000000e+00
9.000000e+00
-1.000000e+00
-1.000000e+00
1.000000e+01
-1.000000e+00
1.100000e+01
-1.000000e+00
-1.000000e+00
1.200000e+01
1.300000e+01
-1.000000e+00
-1.000000e+00
-1.000000e+00
-1.000000e+00
1.400000e+01
-1.000000e+00
-1.000000e+00
-1.000000e+00
-1.000000e+00
1.500000e+01
-1.000000e+00
-1.000000e+00
-1.000000e+00
-1.000000e+00
-1.000000e+00
-1.000000e+00
-1.000000e+00
-1.000000e+00
1.600000e+01
-1.000000e+00
-1.000000e+00
-1.000000e+00
-1.000000e+00
-1.000000e+00
-1.000000e+00
-1.000000e+00
-1.000000e+00
</DataArray>
<DataArray Name="mesh_vars/Nodes_grNI" type="Float64" NumberOfComponents="1" format="ascii">
0.000000e+00
1.000000e+00
-1.000000e+00
2.000000e+00
-1.000000e+00
3.000000e+00
-1.000000e+00
4.000000e+00
-1.000000e+00
5.000000e+00
-1.000000e+00
6.000000e+00
-1.000000e+00
7.000000e+00
8.000000e+00
-1.000000e+00
9.000000e+00
-1.000000e+00
-1.000000e+00
1.000000e+01
-1.000000e+00
1.100000e+01
-1.000000e+00
-1.000000e+00
1.200000e+01
1.300000e+01
-1.000000e+00
-1.000000e+00
-1.000000e+00
-1.000000e+00
1.400000e+01
-1.000000e+00
-1.000000e+00
-1.000000e+00
-1.000000e+00
1.500000e+01
-1.000000e+00
-1.000000e+00
-1.000000e+00
-1.000000e+00
-1.000000e+00
-1.000000e+00
-1.000000e+00
-1.000000e+00
1.600000e+01
-1.000000e+00
-1.000000e+00
-1.000000e+00
-1.000000e+00
-1.000000e+00
-1.000000e+00
-1.000000e+00
-1.000000e+00
</DataArray>
</PointData>
<CellData>
<DataArray Name="data_sc" type="Float64" NumberOfComponents="1" format="ascii">
7.023305e-01
7.430263e-01
9.440876e-01
7.964815e-01
9.746130e-01
7.735517e-01
9.746130e-01
9.075926e-01
9.746130e-01
7.735517e-01
9.746130e-01
9.075926e-01
9.472744e-01
7.462131e-01
7.307561e-01
8.080812e-01
9.726614e-01
7.561430e-01
9.726614e-01
9.004886e-01
9.421360e-01
7.256176e-01
7.003788e-01
7.893775e-01
6.637065e-01
3.898971e-01
6.384677e-01
5.640238e-01
6.047556e-01
3.561850e-01
3.629984e-01
4.413130e-01
3.019476e-01
2.951342e-01
6.019051e-02
2.190908e-01
2.966510e-02
2.646087e-01
2.966510e-02
1.079797e-01
5.846146e-02
2.797113e-01
3.002186e-01
2.127971e-01
2.793606e-02
2.491859e-01
2.793606e-02
1.016860e-01
2.793606e-02
2.491859e-01
2.793606e-02
1.016860e-01
2.925448e-01
2.788510e-01
5.760117e-02
2.096657e-01
3.612694e-01
3.407621e-01
6.030265e-01
4.350193e-01
6.386904e-01
3.764260e-01
6.793861e-01
5.648342e-01
5.023828e-01
3.746408e-01
6.484501e-01
5.084912e-01
6.849743e-01
7.004313e-01
5.389070e-01
6.414375e-01
4.660813e-01
3.246455e-01
3.383392e-01
3.763554e-01
6.641298e-01
3.611696e-01
5.026054e-01
5.093016e-01
</DataArray>
<DataArray Name="data_tc" type="Float64" NumberOfComponents="9" format="ascii">
7.725636e+00 1.474894e+01 0.000000e+00 8.427966e+00 1.545127e+01 0.000000e+00 0.000000e+00 0.000000e+00 0.000000e+00
8.173289e+00 1.560355e+01 0.000000e+00 8.916316e+00 1.634658e+01 0.000000e+00 0.000000e+00 0.000000e+00 0.000000e+00
1.038496e+01 1.982584e+01 0.000000e+00 1.132905e+01 2.076993e+01 0.000000e+00 0.000000e+00 0.000000e+00 0.000000e+00
8.761296e+00 1.672611e+01 0.000000e+00 9.557778e+00 1.752259e+01 0.000000e+00 0.000000e+00 0.000000e+00 0.000000e+00
1.072074e+01 2.046687e+01 0.000000e+00 1.169536e+01 2.144149e+01 0.000000e+00 0.000000e+00 0.000000e+00 0.000000e+00
8.509068e+00 1.624459e+01 0.000000e+00 9.282620e+00 1.701814e+01 0.000000e+00 0.000000e+00 0.000000e+00 0.000000e+00
1.072074e+01 2.046687e+01 0.000000e+00 1.169536e+01 2.144149e+01 0.000000e+00 0.000000e+00 0.000000e+00 0.000000e+00
9.983519e+00 1.905944e+01 0.000000e+00 1.089111e+01 1.996704e+01 0.000000e+00 0.000000e+00 0.000000e+00 0.000000e+00
1.072074e+01 2.046687e+01 0.000000e+00 1.169536e+01 2.144149e+01 0.000000e+00 0.000000e+00 0.000000e+00 0.000000e+00
8.509068e+00 1.624459e+01 0.000000e+00 9.282620e+00 1.701814e+01 0.000000e+00 0.000000e+00 0.000000e+00 0.000000e+00
1.072074e+01 2.046687e+01 0.000000e+00 1.169536e+01 2.144149e+01 0.000000e+00 0.000000e+00 0.000000e+00 0.000000e+00
9.983519e+00 1.905944e+01 0.000000e+00 1.089111e+01 1.996704e+01 0.000000e+00 0.000000e+00 0.000000e+00 0.000000e+00
1.042002e+01 1.989276e+01 0.000000e+00 1.136729e+01 2.084004e+01 0.000000e+00 0.000000e+00 0.000000e+00 0.000000e+00
8.208344e+00 1.567048e+01 0.000000e+00 8.954557e+00 1.641669e+01 0.000000e+00 0.000000e+00 0.000000e+00 0.000000e+00
8.038317e+00 1.534588e+01 0.000000e+00 8.769073e+00 1.607663e+01 0.000000e+00 0.000000e+00 0.000000e+00 0.000000e+00
8.888893e+00 1.696971e+01 0.000000e+00 9.696974e+00 1.777779e+01 0.000000e+00 0.000000e+00 0.000000e+00 0.000000e+00
1.069928e+01 2.042589e+01 0.000000e+00 1.167194e+01 2.139855e+01 0.000000e+00 0.000000e+00 0.000000e+00 0.000000e+00
8.317574e+00 1.587900e+01 0.000000e+00 9.073716e+00 1.663515e+01 0.000000e+00 0.000000e+00 0.000000e+00 0.000000e+00
1.069928e+01 2.042589e+01 0.000000e+00 1.167194e+01 2.139855e+01 0.000000e+00 0.000000e+00 0.000000e+00 0.000000e+00
9.905375e+00 1.891026e+01 0.000000e+00 1.080586e+01 1.981075e+01 0.000000e+00 0.000000e+00 0.000000e+00 0.000000e+00
1.036350e+01 1.978485e+01 0.000000e+00 1.130563e+01 2.072699e+01 0.000000e+00 0.000000e+00 0.000000e+00 0.000000e+00
7.981794e+00 1.523797e+01 0.000000e+00 8.707412e+00 1.596359e+01 0.000000e+00 0.000000e+00 0.000000e+00 0.000000e+00
7.704167e+00 1.470796e+01 0.000000e+00 8.404546e+00 1.540833e+01 0.000000e+00 0.000000e+00 0.000000e+00 0.000000e+00
8.683152e+00 1.657693e+01 0.000000e+00 9.472529e+00 1.736630e+01 0.000000e+00 0.000000e+00 0.000000e+00 0.000000e+00
7.300772e+00 1.393784e+01 0.000000e+00 7.964478e+00 1.460154e+01 0.000000e+00 0.000000e+00 0.000000e+00 0.000000e+00
4.288868e+00 8.187840e+00 0.000000e+00 4.678766e+00 8.577737e+00 0.000000e+00 0.000000e+00 0.000000e+00 0.000000e+00
7.023145e+00 1.340782e+01 0.000000e+00 7.661613e+00 1.404629e+01 0.000000e+00 0.000000e+00 0.000000e+00 0.000000e+00
6.204262e+00 1.184450e+01 0.000000e+00 6.768286e+00 1.240852e+01 0.000000e+00 0.000000e+00 0.000000e+00 0.000000e+00
6.652311e+00 1.269987e+01 0.000000e+00 7.257067e+00 1.330462e+01 0.000000e+00 0.000000e+00 0.000000e+00 0.000000e+00
3.918035e+00 7.479884e+00 0.000000e+00 4.274220e+00 7.836069e+00 0.000000e+00 0.000000e+00 0.000000e+00 0.000000e+00
3.992983e+00 7.622967e+00 0.000000e+00 4.355981e+00 7.985966e+00 0.000000e+00 0.000000e+00 0.000000e+00 0.000000e+00
4.854443e+00 9.267572e+00 0.000000e+00 5.295756e+00 9.708886e+00 0.000000e+00 0.000000e+00 0.000000e+00 0.000000e+00
3.321424e+00 6.340900e+00 0.000000e+00 3.623372e+00 6.642848e+00 0.000000e+00 0.000000e+00 0.000000e+00 0.000000e+00
3.246476e+00 6.197817e+00 0.000000e+00 3.541610e+00 6.492951e+00 0.000000e+00 0.000000e+00 0.000000e+00 0.000000e+00
6.620956e-01 1.264001e+00 0.000000e+00 7.222861e-01 1.324191e+00 0.000000e+00 0.000000e+00 0.000000e+00 0.000000e+00
2.409998e+00 4.600906e+00 0.000000e+00 2.629089e+00 4.819997e+00 0.000000e+00 0.000000e+00 0.000000e+00 0.000000e+00
3.263161e-01 6.229672e-01 0.000000e+00 3.559812e-01 6.526323e-01 0.000000e+00 0.000000e+00 0.000000e+00 0.000000e+00
2.910696e+00 5.556784e+00 0.000000e+00 3.175305e+00 5.821393e+00 0.000000e+00 0.000000e+00 0.000000e+00 0.000000e+00
3.263161e-01 6.229672e-01 0.000000e+00 3.559812e-01 6.526323e-01 0.000000e+00 0.000000e+00 0.000000e+00 0.000000e+00
1.187776e+00 2.267573e+00 0.000000e+00 1.295756e+00 2.375552e+00 0.000000e+00 0.000000e+00 0.000000e+00 0.000000e+00
6.430761e-01 1.227691e+00 0.000000e+00 7.015376e-01 1.286152e+00 0.000000e+00 0.000000e+00 0.000000e+00 0.000000e+00
3.076825e+00 5.873938e+00 0.000000e+00 3.356536e+00 6.153649e+00 0.000000e+00 0.000000e+00 0.000000e+00 0.000000e+00
3.302404e+00 6.304590e+00 0.000000e+00 3.602623e+00 6.604809e+00 0.000000e+00 0.000000e+00 0.000000e+00 0.000000e+00
2.340768e+00 4.468740e+00 0.000000e+00 2.553566e+00 4.681537e+00 0.000000e+00 0.000000e+00 0.000000e+00 0.000000e+00
3.072967e-01 5.866573e-01 0.000000e+00 3.352327e-01 6.145933e-01 0.000000e+00 0.000000e+00 0.000000e+00 0.000000e+00
2.741045e+00 5.232904e+00 0.000000e+00 2.990231e+00 5.482090e+00 0.000000e+00 0.000000e+00 0.000000e+00 0.000000e+00
3.072967e-01 5.866573e-01 0.000000e+00 3.352327e-01 6.145933e-01 0.000000e+00 0.000000e+00 0.000000e+00 0.000000e+00
1.118546e+00 2.135406e+00 0.000000e+00 1.220232e+00 2.237092e+00 0.000000e+00 0.000000e+00 0.000000e+00 0.000000e+00
3.072967e-01 5.866573e-01 0.000000e+00 3.352327e-01 6.145933e-01 0.000000e+00 0.000000e+00 0.000000e+00 0.000000e+00
2.741045e+00 5.232904e+00 0.000000e+00 2.990231e+00 5.482090e+00 0.000000e+00 0.000000e+00 0.000000e+00 0.000000e+00
3.072967e-01 5.866573e-01 0.000000e+00 3.352327e-01 6.145933e-01 0.000000e+00 0.000000e+00 0.000000e+00 0.000000e+00
1.118546e+00 2.135406e+00 0.000000e+00 1.220232e+00 2.237092e+00 0.000000e+00 0.000000e+00 0.000000e+00 0.000000e+00
3.217993e+00 6.143441e+00 0.000000e+00 3.510538e+00 6.435986e+00 0.000000e+00 0.000000e+00 0.000000e+00 0.000000e+00
3.067361e+00 5.855872e+00 0.000000e+00 3.346212e+00 6.134723e+00 0.000000e+00 0.000000e+00 0.000000e+00 0.000000e+00
6.336128e-01 1.209624e+00 0.000000e+00 6.912140e-01 1.267226e+00 0.000000e+00 0.000000e+00 0.000000e+00 0.000000e+00
2.306322e+00 4.402979e+00 0.000000e+00 2.515988e+00 4.612645e+00 0.000000e+00 0.000000e+00 0.000000e+00 0.000000e+00
3.973963e+00 7.586657e+00 0.000000e+00 4.335233e+00 7.947927e+00 0.000000e+00 0.000000e+00 0.000000e+00 0.000000e+00
3.748384e+00 7.156005e+00 0.000000e+00 4.089146e+00 7.496767e+00 0.000000e+00 0.000000e+00 0.000000e+00 0.000000e+00
6.633292e+00 1.266356e+01 0.000000e+00 7.236318e+00 1.326658e+01 0.000000e+00 0.000000e+00 0.000000e+00 0.000000e+00
4.785213e+00 9.135406e+00 0.000000e+00 5.220232e+00 9.570426e+00 0.000000e+00 0.000000e+00 0.000000e+00 0.000000e+00
7.025594e+00 1.341250e+01 0.000000e+00 7.664284e+00 1.405119e+01 0.000000e+00 0.000000e+00 0.000000e+00 0.000000e+00
4.140686e+00 7.904946e+00 0.000000e+00 4.517112e+00 8.281372e+00 0.000000e+00 0.000000e+00 0.000000e+00 0.000000e+00
7.473248e+00 1.426711e+01 0.000000e+00 8.152634e+00 1.494650e+01 0.000000e+00 0.000000e+00 0.000000e+00 0.000000e+00
6.213176e+00 1.186152e+01 0.000000e+00 6.778010e+00 1.242635e+01 0.000000e+00 0.000000e+00 0.000000e+00 0.000000e+00
5.526211e+00 1.055004e+01 0.000000e+00 6.028594e+00 1.105242e+01 0.000000e+00 0.000000e+00 0.000000e+00 0.000000e+00
4.121048e+00 7.867456e+00 0.000000e+00 4.495689e+00 8.242097e+00 0.000000e+00 0.000000e+00 0.000000e+00 0.000000e+00
7.132952e+00 1.361745e+01 0.000000e+00 7.781402e+00 1.426590e+01 0.000000e+00 0.000000e+00 0.000000e+00 0.000000e+00
5.593404e+00 1.067832e+01 0.000000e+00 6.101895e+00 1.118681e+01 0.000000e+00 0.000000e+00 0.000000e+00 0.000000e+00
7.534718e+00 1.438446e+01 0.000000e+00 8.219691e+00 1.506944e+01 0.000000e+00 0.000000e+00 0.000000e+00 0.000000e+00
7.704744e+00 1.470906e+01 0.000000e+00 8.405175e+00 1.540949e+01 0.000000e+00 0.000000e+00 0.000000e+00 0.000000e+00
5.927977e+00 1.131705e+01 0.000000e+00 6.466884e+00 1.185595e+01 0.000000e+00 0.000000e+00 0.000000e+00 0.000000e+00
7.055813e+00 1.347019e+01 0.000000e+00 7.697250e+00 1.411163e+01 0.000000e+00 0.000000e+00 0.000000e+00 0.000000e+00
5.126894e+00 9.787707e+00 0.000000e+00 5.592976e+00 1.025379e+01 0.000000e+00 0.000000e+00 0.000000e+00 0.000000e+00
3.571100e+00 6.817554e+00 0.000000e+00 3.895746e+00 7.142200e+00 0.000000e+00 0.000000e+00 0.000000e+00 0.000000e+00
3.721732e+00 7.105124e+00 0.000000e+00 4.060071e+00 7.443463e+00 0.000000e+00 0.000000e+00 0.000000e+00 0.000000e+00
4.139909e+00 7.903462e+00 0.000000e+00 4.516264e+00 8.279818e+00 0.000000e+00 0.000000e+00 0.000000e+00 0.000000e+00
7.305428e+00 1.394672e+01 0.000000e+00 7.969557e+00 1.461086e+01 0.000000e+00 0.000000e+00 0.000000e+00 0.000000e+00
3.972866e+00 7.584562e+00 0.000000e+00 4.334035e+00 7.945731e+00 0.000000e+00 0.000000e+00 0.000000e+00 0.000000e+00
5.528660e+00 1.055471e+01 0.000000e+00 6.031265e+00 1.105732e+01 0.000000e+00 0.000000e+00 0.000000e+00 0.000000e+00
5.602318e+00 1.069533e+01 0.000000e+00 6.111619e+00 1.120464e+01 0.000000e+00 0.000000e+00 0.000000e+00 0.000000e+00
</DataArray>
<DataArray Name="data_vc" type="Float64" NumberOfComponents="3" format="ascii">
7.023305e-01 1.404661e+00 0.000000e+00
7.430263e-01 1.486053e+00 0.000000e+00
9.440876e-01 1.888175e+00 0.000000e+00
7.964815e-01 1.592963e+00 0.000000e+00
9.746130e-01 1.949226e+00 0.000000e+00
7.735517e-01 1.547103e+00 0.000000e+00
9.746130e-01 1.949226e+00 0.000000e+00
9.075926e-01 1.815185e+00 0.000000e+00
9.746130e-01 1.949226e+00 0.000000e+00
7.735517e-01 1.547103e+00 0.000000e+00
9.746130e-01 1.949226e+00 0.000000e+00
9.075926e-01 1.815185e+00 0.000000e+00
9.472744e-01 1.894549e+00 0.000000e+00
7.462131e-01 1.492426e+00 0.000000e+00
7.307561e-01 1.461512e+00 0.000000e+00
8.080812e-01 1.616162e+00 0.000000e+00
9.726614e-01 1.945323e+00 0.000000e+00
7.561430e-01 1.512286e+00 0.000000e+00
9.726614e-01 1.945323e+00 0.000000e+00
9.004886e-01 1.800977e+00 0.000000e+00
9.421360e-01 1.884272e+00 0.000000e+00
7.256176e-01 1.451235e+00 0.000000e+00
7.003788e-01 1.400758e+00 0.000000e+00
7.893775e-01 1.578755e+00 0.000000e+00
6.637065e-01 1.327413e+00 0.000000e+00
3.898971e-01 7.797943e-01 0.000000e+00
6.384677e-01 1.276935e+00 0.000000e+00
5.640238e-01 1.128048e+00 0.000000e+00
6.047556e-01 1.209511e+00 0.000000e+00
3.561850e-01 7.123699e-01 0.000000e+00
3.629984e-01 7.259969e-01 0.000000e+00
4.413130e-01 8.826260e-01 0.000000e+00
3.019476e-01 6.038952e-01 0.000000e+00