<?xml version="1.0"?>
<VTKFile type="UnstructuredGrid" version="0.1">
<UnstructuredGrid>
<FieldData>
<DataArray Name="TIME" type="Float64" format="ascii" NumberOfTuples="1">
0.000000e+00
</DataArray>
</FieldData>
<FieldData>
<DataArray Name="CYCLE" type="Int32" format="ascii" NumberOfTuples="1">
0
</DataArray>
</FieldData>
<Piece NumberOfPoints="27" NumberOfCells="24">
<Points>
<DataArray NumberOfComponents="3" type="Float64" format="ascii">
0.000000e+00 0.000000e+00 0.000000e+00
5.000000e-01 0.000000e+00 0.000000e+00
1.000000e+00 0.000000e+00 0.000000e+00
0.000000e+00 5.000000e-01 0.000000e+00
5.000000e-01 5.000000e-01 0.000000e+00
1.000000e+00 5.000000e-01 0.000000e+00
0.000000e+00 1.000000e+00 0.000000e+00
5.000000e-01 1.000000e+00 0.000000e+00
1.000000e+00 1.000000e+00 0.000000e+00
0.000000e+00 0.000000e+00 5.000000e-01
5.000000e-01 0.000000e+00 5.000000e-01
1.000000e+00 0.000000e+00 5.000000e-01
0.000000e+00 5.000000e-01 5.000000e-01
5.000000e-01 5.000000e-01 5.000000e-01
1.000000e+00 5.000000e-01 5.000000e-01
0.000000e+00 1.000000e+00 5.000000e-01
5.000000e-01 1.000000e+00 5.000000e-01
1.000000e+00 1.000000e+00 5.000000e-01
0.000000e+00 0.000000e+00 1.000000e+00
5.000000e-01 0.000000e+00 1.000000e+00
1.000000e+00 0.000000e+00 1.000000e+00
0.000000e+00 5.000000e-01 1.000000e+00
5.000000e-01 5.000000e-01 1.000000e+00
1.000000e+00 5.000000e-01 1.000000e+00
0.000000e+00 1.000000e+00 1.000000e+00
5.000000e-01 1.000000e+00 1.000000e+00
1.000000e+00 1.000000e+00 1.000000e+00
</DataArray>
</Points>
<Cells>
<DataArray Name="connectivity" type="Int32" format="ascii">
0 3 4 1
3 6 7 4
1 4 5 2
4 7 8 5
0 9 12 3
9 18 21 12
3 12 15 6
12 21 24 15
0 1 10 9
1 2 11 10
9 10 19 18
10 11 20 19
2 5 14 11
5 8 17 14
11 14 23 20
14 17 26 23
6 15 16 7
15 24 25 16
7 16 17 8
16 25 26 17
18 19 22 21
19 20 23 22
21 22 25 24
22 23 26 25
</DataArray>
<DataArray Name="offsets" type="Int32" format="ascii">
4
8
12
16
20
24
28
32
36
40
44
48
52
56
60
64
68
72
76
80
84
88
92
96
</DataArray>
<DataArray Name="types" type="UInt8" format="ascii">
9
9
9
9
9
9
9
9
9
9
9
9
9
9
9
9
9
9
9
9
9
9
9
9
</DataArray>
</Cells>
<CellData>
<DataArray Name="data_s" type="Float64" NumberOfComponents="1" format="ascii">
2.113249e-01
2.113249e-01
7.886751e-01
7.886751e-01
0.000000e+00
0.000000e+00
0.000000e+00
0.000000e+00
2.113249e-01
7.886751e-01
2.113249e-01
7.886751e-01
1.000000e+00
1.000000e+00
1.000000e+00
1.000000e+00
2.113249e-01
2.113249e-01
7.886751e-01
7.886751e-01
2.113249e-01
7.886751e-01
2.113249e-01
7.886751e-01
</DataArray>
<DataArray Name="data_t" type="Float64" NumberOfComponents="9" format="ascii">
2.324574e+00 4.437822e+00 6.551071e+00 2.535898e+00 4.649147e+00 6.762396e+00 2.747223e+00 4.860472e+00 6.973721e+00
2.324574e+00 4.437822e+00 6.551071e+00 2.535898e+00 4.649147e+00 6.762396e+00 2.747223e+00 4.860472e+00 6.973721e+00
8.675426e+00 1.656218e+01 2.444893e+01 9.464102e+00 1.735085e+01 2.523760e+01 1.025278e+01 1.813953e+01 2.602628e+01
8.675426e+00 1.656218e+01 2.444893e+01 9.464102e+00 1.735085e+01 2.523760e+01 1.025278e+01 1.813953e+01 2.602628e+01
0.000000e+00 0.000000e+00 0.000000e+00 0.000000e+00 0.000000e+00 0.000000e+00 0.000000e+00 0.000000e+00 0.000000e+00
0.000000e+00 0.000000e+00 0.000000e+00 0.000000e+00 0.000000e+00 0.000000e+00 0.000000e+00 0.000000e+00 0.000000e+00
0.000000e+00 0.000000e+00 0.000000e+00 0.000000e+00 0.000000e+00 0.000000e+00 0.000000e+00 0.000000e+00 0.000000e+00
0.000000e+00 0.000000e+00 0.000000e+00 0.000000e+00 0.000000e+00 0.000000e+00 0.000000e+00 0.000000e+00 0.000000e+00
2.324574e+00 4.437822e+00 6.551071e+00 2.535898e+00 4.649147e+00 6.762396e+00 2.747223e+00 4.860472e+00 6.973721e+00
8.675426e+00 1.656218e+01 2.444893e+01 9.464102e+00 1.735085e+01 2.523760e+01 1.025278e+01 1.813953e+01 2.602628e+01
2.324574e+00 4.437822e+00 6.551071e+00 2.535898e+00 4.649147e+00 6.762396e+00 2.747223e+00 4.860472e+00 6.973721e+00
8.675426e+00 1.656218e+01 2.444893e+01 9.464102e+00 1.735085e+01 2.523760e+01 1.025278e+01 1.813953e+01 2.602628e+01
1.100000e+01 2.100000e+01 3.100000e+01 1.200000e+01 2.200000e+01 3.200000e+01 1.300000e+01 2.300000e+01 3.300000e+01
1.100000e+01 2.100000e+01 3.100000e+01 1.200000e+01 2.200000e+01 3.200000e+01 1.300000e+01 2.300000e+01 3.300000e+01
1.100000e+01 2.100000e+01 3.100000e+01 1.200000e+01 2.200000e+01 3.200000e+01 1.300000e+01 2.300000e+01 3.300000e+01
1.100000e+01 2.100000e+01 3.100000e+01 1.200000e+01 2.200000e+01 3.200000e+01 1.300000e+01 2.300000e+01 3.300000e+01
2.324574e+00 4.437822e+00 6.551071e+00 2.535898e+00 4.649147e+00 6.762396e+00 2.747223e+00 4.860472e+00 6.973721e+00
2.324574e+00 4.437822e+00 6.551071e+00 2.535898e+00 4.649147e+00 6.762396e+00 2.747223e+00 4.860472e+00 6.973721e+00
8.675426e+00 1.656218e+01 2.444893e+01 9.464102e+00 1.735085e+01 2.523760e+01 1.025278e+01 1.813953e+01 2.602628e+01
8.675426e+00 1.656218e+01 2.444893e+01 9.464102e+00 1.735085e+01 2.523760e+01 1.025278e+01 1.813953e+01 2.602628e+01
2.324574e+00 4.437822e+00 6.551071e+00 2.535898e+00 4.649147e+00 6.762396e+00 2.747223e+00 4.860472e+00 6.973721e+00
8.675426e+00 1.656218e+01 2.444893e+01 9.464102e+00 1.735085e+01 2.523760e+01 1.025278e+01 1.813953e+01 2.602628e+01
2.324574e+00 4.437822e+00 6.551071e+00 2.535898e+00 4.649147e+00 6.762396e+00 2.747223e+00 4.860472e+00 6.973721e+00
8.675426e+00 1.656218e+01 2.444893e+01 9.464102e+00 1.735085e+01 2.523760e+01 1.025278e+01 1.813953e+01 2.602628e+01
</DataArray>
<DataArray Name="data_v" type="Float64" NumberOfComponents="3" format="ascii">
2.113249e-01 4.226497e-01 6.339746e-01
2.113249e-01 4.226497e-01 6.339746e-01
7.886751e-01 1.577350e+00 2.366025e+00
7.886751e-01 1.577350e+00 2.366025e+00
0.000000e+00 0.000000e+00 0.000000e+00
0.000000e+00 0.000000e+00 0.000000e+00
0.000000e+00 0.000000e+00 0.000000e+00
0.000000e+00 0.000000e+00 0.000000e+00
2.113249e-01 4.226497e-01 6.339746e-01
7.886751e-01 1.577350e+00 2.366025e+00
2.113249e-01 4.226497e-01 6.339746e-01
7.886751e-01 1.577350e+00 2.366025e+00
1.000000e+00 2.000000e+00 3.000000e+00
1.000000e+00 2.000000e+00 3.000000e+00
1.000000e+00 2.000000e+00 3.000000e+00
1.000000e+00 2.000000e+00 3.000000e+00
2.113249e-01 4.226497e-01 6.339746e-01
2.113249e-01 4.226497e-01 6.339746e-01
7.886751e-01 1.577350e+00 2.366025e+00
7.886751e-01 1.577350e+00 2.366025e+00
2.113249e-01 4.226497e-01 6.339746e-01
7.886751e-01 1.577350e+00 2.366025e+00
2.113249e-01 4.226497e-01 6.339746e-01
7.886751e-01 1.577350e+00 2.366025e+00
</DataArray>
<DataArray Name="mesh_vars/FaceElements_Color" type="Float64" NumberOfComponents="1" format="ascii">
0.000000e+00
0.000000e+00
0.000000e+00
0.000000e+00
1.000000e+00
1.000000e+00
1.000000e+00
1.000000e+00
2.000000e+00
2.000000e+00
2.000000e+00
2.000000e+00
1.000000e+00
1.000000e+00
1.000000e+00
1.000000e+00
2.000000e+00
2.000000e+00
2.000000e+00
2.000000e+00
0.000000e+00
0.000000e+00
0.000000e+00
0.000000e+00
</DataArray>
<DataArray Name="mesh_vars/FaceElements_Id" type="Float64" NumberOfComponents="1" format="ascii">
1.000000e+00
1.000000e+00
1.000000e+00
1.000000e+00
3.000000e+00
3.000000e+00
3.000000e+00
3.000000e+00
5.000000e+00
5.000000e+00
5.000000e+00
5.000000e+00
4.000000e+00
4.000000e+00
4.000000e+00
4.000000e+00
6.000000e+00
6.000000e+00
6.000000e+00
6.000000e+00
2.000000e+00
2.000000e+00
2.000000e+00
2.000000e+00
</DataArray>
<DataArray Name="mesh_vars/FaceElements_Owner" type="Float64" NumberOfComponents="1" format="ascii">
0.000000e+00
0.000000e+00
0.000000e+00
0.000000e+00
0.000000e+00
0.000000e+00
0.000000e+00
0.000000e+00
0.000000e+00
0.000000e+00
0.000000e+00
0.000000e+00
0.000000e+00
0.000000e+00
0.000000e+00
0.000000e+00
0.000000e+00
0.000000e+00
0.000000e+00
0.000000e+00
0.000000e+00
0.000000e+00
0.000000e+00
0.000000e+00
</DataArray>
<DataArray Name="mesh_vars/FaceElements_Tag" type="Float64" NumberOfComponents="1" format="ascii">
1.000000e+02
1.000000e+02
1.000000e+02
1.000000e+02
1.000000e+00
1.000000e+00
1.000000e+00
1.000000e+00
1.000000e+01
1.000000e+01
1.000000e+01
1.000000e+01
2.000000e+00
2.000000e+00
2.000000e+00
2.000000e+00
2.000000e+01
2.000000e+01
2.000000e+01
2.000000e+01
2.000000e+02
2.000000e+02
2.000000e+02
2.000000e+02
</DataArray>
</CellData>
</Piece>
</UnstructuredGrid>
</VTKFile>
