<?xml version="1.0"?>
<VTKFile type="UnstructuredGrid" version="0.1">
<UnstructuredGrid>
<FieldData>
<DataArray Name="TIME" type="Float64" format="ascii" NumberOfTuples="1">
0.000000e+00
</DataArray>
</FieldData>
<FieldData>
<DataArray Name="CYCLE" type="Int32" format="ascii" NumberOfTuples="1">
0
</DataArray>
</FieldData>
<Piece NumberOfPoints="81" NumberOfCells="192">
<Points>
<DataArray NumberOfComponents="3" type="Float64" format="ascii">
1.000000e+00 5.000000e-01 -0.000000e+00
1.000000e+00 5.000000e-01 1.000000e+00
1.000000e+00 1.000000e+00 5.000000e-01
1.000000e+00 5.000000e-01 5.000000e-01
1.000000e+00 7.500000e-01 7.500000e-01
1.000000e+00 7.500000e-01 2.500000e-01
1.000000e+00 0.000000e+00 5.000000e-01
1.000000e+00 2.500000e-01 2.500000e-01
1.000000e+00 2.500000e-01 7.500000e-01
1.000000e+00 0.000000e+00 1.000000e+00
1.000000e+00 0.000000e+00 7.500000e-01
1.000000e+00 2.500000e-01 1.000000e+00
1.000000e+00 1.000000e+00 -0.000000e+00
1.000000e+00 1.000000e+00 2.500000e-01
1.000000e+00 7.500000e-01 -0.000000e+00
1.000000e+00 0.000000e+00 -0.000000e+00
1.000000e+00 2.500000e-01 -0.000000e+00
1.000000e+00 0.000000e+00 2.500000e-01
1.000000e+00 1.000000e+00 1.000000e+00
1.000000e+00 7.500000e-01 1.000000e+00
1.000000e+00 1.000000e+00 7.500000e-01
5.000000e-01 0.000000e+00 1.000000e+00
0.000000e+00 5.000000e-01 1.000000e+00
5.000000e-01 1.000000e+00 1.000000e+00
2.500000e-01 2.500000e-01 1.000000e+00
2.500000e-01 7.500000e-01 1.000000e+00
5.000000e-01 5.000000e-01 1.000000e+00
7.500000e-01 7.500000e-01 1.000000e+00
7.500000e-01 2.500000e-01 1.000000e+00
0.000000e+00 1.000000e+00 1.000000e+00
0.000000e+00 7.500000e-01 1.000000e+00
2.500000e-01 1.000000e+00 1.000000e+00
0.000000e+00 0.000000e+00 1.000000e+00
2.500000e-01 0.000000e+00 1.000000e+00
0.000000e+00 2.500000e-01 1.000000e+00
7.500000e-01 1.000000e+00 1.000000e+00
7.500000e-01 0.000000e+00 1.000000e+00
5.000000e-01 1.000000e+00 -0.000000e+00
0.000000e+00 1.000000e+00 5.000000e-01
5.000000e-01 1.000000e+00 5.000000e-01
2.500000e-01 1.000000e+00 2.500000e-01
2.500000e-01 1.000000e+00 7.500000e-01
7.500000e-01 1.000000e+00 7.500000e-01
7.500000e-01 1.000000e+00 2.500000e-01
7.500000e-01 1.000000e+00 -0.000000e+00
0.000000e+00 1.000000e+00 7.500000e-01
0.000000e+00 1.000000e+00 -0.000000e+00
2.500000e-01 1.000000e+00 -0.000000e+00
0.000000e+00 1.000000e+00 2.500000e-01
0.000000e+00 5.000000e-01 -0.000000e+00
0.000000e+00 5.000000e-01 5.000000e-01
0.000000e+00 7.500000e-01 2.500000e-01
0.000000e+00 7.500000e-01 7.500000e-01
0.000000e+00 0.000000e+00 5.000000e-01
0.000000e+00 2.500000e-01 7.500000e-01
0.000000e+00 2.500000e-01 2.500000e-01
0.000000e+00 0.000000e+00 -0.000000e+00
0.000000e+00 0.000000e+00 2.500000e-01
0.000000e+00 2.500000e-01 -0.000000e+00
0.000000e+00 0.000000e+00 7.500000e-01
0.000000e+00 7.500000e-01 -0.000000e+00
5.000000e-01 0.000000e+00 -0.000000e+00
5.000000e-01 0.000000e+00 5.000000e-01
2.500000e-01 0.000000e+00 2.500000e-01
2.500000e-01 0.000000e+00 7.500000e-01
7.500000e-01 0.000000e+00 7.500000e-01
7.500000e-01 0.000000e+00 2.500000e-01
7.500000e-01 0.000000e+00 -0.000000e+00
2.500000e-01 0.000000e+00 -0.000000e+00
5.000000e-01 5.000000e-01 -0.000000e+00
2.500000e-01 7.500000e-01 -0.000000e+00
2.500000e-01 2.500000e-01 -0.000000e+00
7.500000e-01 2.500000e-01 -0.000000e+00
7.500000e-01 7.500000e-01 -0.000000e+00
2.500000e-01 2.500000e-01 5.000000e-01
2.500000e-01 5.000000e-01 7.500000e-01
2.500000e-01 5.000000e-01 2.500000e-01
5.000000e-01 5.000000e-01 5.000000e-01
7.500000e-01 5.000000e-01 7.500000e-01
7.500000e-01 5.000000e-01 2.500000e-01
7.500000e-01 7.500000e-01 5.000000e-01
</DataArray>
</Points>
<Cells>
<DataArray Name="connectivity" type="Int32" format="ascii">
72 16 0 7
72 67 16 17
67 15 16 17
66 17 7 6
61 67 72 66
17 66 67 72
72 7 66 17
72 16 7 17
13 44 12 14
13 43 44 73
43 37 44 73
5 73 14 0
2 43 13 5
73 5 43 13
13 14 5 73
13 44 14 73
66 72 61 69
66 7 72 73
7 0 72 73
79 73 69 37
6 7 66 79
73 79 7 66
66 69 79 73
66 72 69 73
73 7 0 3
73 79 7 8
79 6 7 8
80 8 3 1
37 79 73 80
8 80 79 73
73 3 80 8
73 7 3 8
73 43 37 80
73 5 43 4
5 2 43 4
3 4 80 1
0 5 73 3
4 3 5 73
73 80 3 4
73 43 80 4
8 11 1 28
8 10 11 36
10 9 11 36
65 36 28 21
6 10 8 65
36 65 10 8
8 28 65 36
8 11 28 36
35 20 18 19
35 42 20 4
42 2 20 4
27 4 19 1
23 42 35 27
4 27 42 35
35 19 27 4
35 20 19 4
65 8 6 78
65 28 8 27
28 1 8 27
26 27 78 23
21 28 65 26
27 26 28 65
65 78 26 27
65 8 78 27
80 8 1 27
80 79 8 78
79 6 8 78
39 78 27 23
37 79 80 39
78 39 79 80
80 27 39 78
80 8 27 78
42 43 2 4
42 39 43 80
39 37 43 80
27 80 4 1
23 39 42 27
80 27 39 42
42 4 27 80
42 43 4 80
62 66 61 77
62 65 66 78
65 6 66 78
26 78 77 23
21 65 62 26
78 26 65 62
62 77 26 78
62 66 77 78
79 66 6 78
79 69 66 77
69 61 66 77
39 77 78 23
37 69 79 39
77 39 69 79
79 78 39 77
79 66 78 77
64 33 21 24
64 59 33 34
59 32 33 34
54 34 24 22
53 59 64 54
34 54 59 64
64 24 54 34
64 33 24 34
74 64 21 24
74 55 64 54
55 53 64 54
50 54 24 22
49 55 74 50
54 50 55 74
74 24 50 54
74 64 24 54
51 75 38 52
51 74 75 24
74 21 75 24
50 24 52 22
49 74 51 50
24 50 74 51
51 52 50 24
51 75 52 24
63 62 61 71
63 64 62 74
64 21 62 74
55 74 71 49
53 64 63 55
74 55 64 63
63 71 55 74
63 62 71 74
75 62 21 74
75 76 62 71
76 61 62 71
51 71 74 49
38 76 75 51
71 51 76 75
75 74 51 71
75 62 74 71
62 77 61 76
62 26 77 41
26 23 77 41
75 41 76 38
21 26 62 75
41 75 26 62
62 76 75 41
62 77 76 41
41 26 23 25
41 75 26 24
75 21 26 24
52 24 25 22
38 75 41 52
24 52 75 41
41 25 52 24
41 26 25 24
45 31 29 30
45 41 31 25
41 23 31 25
52 25 30 22
38 41 45 52
25 52 41 45
45 30 52 25
45 31 30 25
77 69 61 76
77 39 69 40
39 37 69 40
41 40 76 38
23 39 77 41
40 41 39 77
77 76 41 40
77 69 76 40
40 47 37 70
40 48 47 60
48 46 47 60
51 60 70 49
38 48 40 51
60 51 48 40
40 70 51 60
40 47 70 60
76 69 61 71
76 40 69 70
40 37 69 70
51 70 71 49
38 40 76 51
70 51 40 76
76 71 51 70
76 69 71 70
57 68 56 58
57 63 68 71
63 61 68 71
55 71 58 49
53 63 57 55
71 55 63 57
57 58 55 71
57 68 58 71
</DataArray>
<DataArray Name="offsets" type="Int32" format="ascii">
4
8
12
16
20
24
28
32
36
40
44
48
52
56
60
64
68
72
76
80
84
88
92
96
100
104
108
112
116
120
124
128
132
136
140
144
148
152
156
160
164
168
172
176
180
184
188
192
196
200
204
208
212
216
220
224
228
232
236
240
244
248
252
256
260
264
268
272
276
280
284
288
292
296
300
304
308
312
316
320
324
328
332
336
340
344
348
352
356
360
364
368
372
376
380
384
388
392
396
400
404
408
412
416
420
424
428
432
436
440
444
448
452
456
460
464
468
472
476
480
484
488
492
496
500
504
508
512
516
520
524
528
532
536
540
544
548
552
556
560
564
568
572
576
580
584
588
592
596
600
604
608
612
616
620
624
628
632
636
640
644
648
652
656
660
664
668
672
676
680
684
688
692
696
700
704
708
712
716
720
724
728
732
736
740
744
748
752
756
760
764
768
</DataArray>
<DataArray Name="types" type="UInt8" format="ascii">
10
10
10
10
10
10
10
10
10
10
10
10
10
10
10
10
10
10
10
10
10
10
10
10
10
10
10
10
10
10
10
10
10
10
10
10
10
10
10
10
10
10
10
10
10
10
10
10
10
10
10
10
10
10
10
10
10
10
10
10
10
10
10
10
10
10
10
10
10
10
10
10
10
10
10
10
10
10
10
10
10
10
10
10
10
10
10
10
10
10
10
10
10
10
10
10
10
10
10
10
10
10
10
10
10
10
10
10
10
10
10
10
10
10
10
10
10
10
10
10
10
10
10
10
10
10
10
10
10
10
10
10
10
10
10
10
10
10
10
10
10
10
10
10
10
10
10
10
10
10
10
10
10
10
10
10
10
10
10
10
10
10
10
10
10
10
10
10
10
10
10
10
10
10
10
10
10
10
10
10
10
10
10
10
10
10
10
10
10
10
10
10
</DataArray>
</Cells>
<PointData>
<DataArray Name="mesh_vars/Nodes_Id" type="Float64" NumberOfComponents="1" format="ascii">
0.000000e+00
1.000000e+00
2.000000e+00
3.000000e+00
4.000000e+00
5.000000e+00
6.000000e+00
7.000000e+00
8.000000e+00
9.000000e+00
1.000000e+01
1.100000e+01
1.200000e+01
1.300000e+01
1.400000e+01
1.500000e+01
1.600000e+01
1.700000e+01
1.800000e+01
1.900000e+01
2.000000e+01
2.100000e+01
2.200000e+01
2.300000e+01
2.400000e+01
2.500000e+01
2.600000e+01
2.700000e+01
2.800000e+01
2.900000e+01
3.000000e+01
3.100000e+01
3.200000e+01
3.300000e+01
3.400000e+01
3.500000e+01
3.600000e+01
3.700000e+01
3.800000e+01
3.900000e+01
4.000000e+01
4.100000e+01
4.200000e+01
4.300000e+01
4.400000e+01
4.500000e+01
4.600000e+01
4.700000e+01
4.800000e+01
4.900000e+01
5.000000e+01
5.100000e+01
5.200000e+01
5.300000e+01
5.400000e+01
5.500000e+01
5.600000e+01
5.700000e+01
5.800000e+01
5.900000e+01
6.000000e+01
6.100000e+01
6.200000e+01
6.300000e+01
6.400000e+01
6.500000e+01
6.600000e+01
6.700000e+01
6.800000e+01
6.900000e+01
7.000000e+01
7.100000e+01
7.200000e+01
7.300000e+01
7.400000e+01
7.500000e+01
7.600000e+01
7.700000e+01
7.800000e+01
7.900000e+01
8.000000e+01
</DataArray>
<DataArray Name="mesh_vars/Nodes_Tag" type="Float64" NumberOfComponents="1" format="ascii">
0.000000e+00
0.000000e+00
0.000000e+00
0.000000e+00
0.000000e+00
0.000000e+00
0.000000e+00
0.000000e+00
0.000000e+00
0.000000e+00
0.000000e+00
0.000000e+00
0.000000e+00
0.000000e+00
0.000000e+00
0.000000e+00
0.000000e+00
0.000000e+00
0.000000e+00
0.000000e+00
0.000000e+00
0.000000e+00
0.000000e+00
0.000000e+00
0.000000e+00
0.000000e+00
0.000000e+00
0.000000e+00
0.000000e+00
0.000000e+00
0.000000e+00
0.000000e+00
0.000000e+00
0.000000e+00
0.000000e+00
0.000000e+00
0.000000e+00
0.000000e+00
0.000000e+00
0.000000e+00
0.000000e+00
0.000000e+00
0.000000e+00
0.000000e+00
0.000000e+00
0.000000e+00
0.000000e+00
0.000000e+00
0.000000e+00
0.000000e+00
0.000000e+00
0.000000e+00
0.000000e+00
0.000000e+00
0.000000e+00
0.000000e+00
0.000000e+00
0.000000e+00
0.000000e+00
0.000000e+00
0.000000e+00
0.000000e+00
0.000000e+00
0.000000e+00
0.000000e+00
0.000000e+00
0.000000e+00
0.000000e+00
0.000000e+00
0.000000e+00
0.000000e+00
0.000000e+00
0.000000e+00
0.000000e+00
0.000000e+00
0.000000e+00
0.000000e+00
0.000000e+00
0.000000e+00
0.000000e+00
0.000000e+00
</DataArray>
<DataArray Name="mesh_vars/Nodes_gDOF" type="Float64" NumberOfComponents="1" format="ascii">
0.000000e+00
1.000000e+00
2.000000e+00
3.000000e+00
4.000000e+00
5.000000e+00
6.000000e+00
7.000000e+00
8.000000e+00
9.000000e+00
1.000000e+01
1.100000e+01
1.200000e+01
1.300000e+01
1.400000e+01
1.500000e+01
1.600000e+01
1.700000e+01
1.800000e+01
1.900000e+01
2.000000e+01
2.100000e+01
2.200000e+01
2.300000e+01
2.400000e+01
2.500000e+01
2.600000e+01
2.700000e+01
2.800000e+01
2.900000e+01
3.000000e+01
3.100000e+01
3.200000e+01
3.300000e+01
3.400000e+01
3.500000e+01
3.600000e+01
3.700000e+01
3.800000e+01
3.900000e+01
4.000000e+01
4.100000e+01
4.200000e+01
4.300000e+01
4.400000e+01
4.500000e+01
4.600000e+01
4.700000e+01
4.800000e+01
4.900000e+01
5.000000e+01
5.100000e+01
5.200000e+01
5.300000e+01
5.400000e+01
5.500000e+01
5.600000e+01
5.700000e+01
5.800000e+01
5.900000e+01
6.000000e+01
6.100000e+01
6.200000e+01
6.300000e+01
6.400000e+01
6.500000e+01
6.600000e+01
6.700000e+01
6.800000e+01
6.900000e+01
7.000000e+01
7.100000e+01
7.200000e+01
7.300000e+01
7.400000e+01
7.500000e+01
7.600000e+01
7.700000e+01
7.800000e+01
7.900000e+01
8.000000e+01
</DataArray>
<DataArray Name="mesh_vars/Nodes_gNI" type="Float64" NumberOfComponents="1" format="ascii">
0.000000e+00
1.000000e+00
2.000000e+00
3.000000e+00
4.000000e+00
5.000000e+00
6.000000e+00
7.000000e+00
8.000000e+00
9.000000e+00
1.000000e+01
1.100000e+01
1.200000e+01
1.300000e+01
1.400000e+01
1.500000e+01
1.600000e+01
1.700000e+01
1.800000e+01
1.900000e+01
2.000000e+01
2.100000e+01
2.200000e+01
2.300000e+01
2.400000e+01
2.500000e+01
2.600000e+01
2.700000e+01
2.800000e+01
2.900000e+01
3.000000e+01
3.100000e+01
3.200000e+01
3.300000e+01
3.400000e+01
3.500000e+01
3.600000e+01
3.700000e+01
3.800000e+01
3.900000e+01
4.000000e+01
4.100000e+01
4.200000e+01
4.300000e+01
4.400000e+01
4.500000e+01
4.600000e+01
4.700000e+01
4.800000e+01
4.900000e+01
5.000000e+01
5.100000e+01
5.200000e+01
5.300000e+01
5.400000e+01
5.500000e+01
5.600000e+01
5.700000e+01
5.800000e+01
5.900000e+01
6.000000e+01
6.100000e+01
6.200000e+01
6.300000e+01
6.400000e+01
6.500000e+01
6.600000e+01
6.700000e+01
6.800000e+01
6.900000e+01
7.000000e+01
7.100000e+01
7.200000e+01
7.300000e+01
7.400000e+01
7.500000e+01
7.600000e+01
7.700000e+01
7.800000e+01
7.900000e+01
8.000000e+01
</DataArray>
<DataArray Name="mesh_vars/Nodes_grDfI" type="Float64" NumberOfComponents="1" format="ascii">
0.000000e+00
1.000000e+00
2.000000e+00
-1.000000e+00
-1.000000e+00
-1.000000e+00
3.000000e+00
-1.000000e+00
-1.000000e+00
4.000000e+00
-1.000000e+00
-1.000000e+00
5.000000e+00
-1.000000e+00
-1.000000e+00
6.000000e+00
-1.000000e+00
-1.000000e+00
7.000000e+00
-1.000000e+00
-1.000000e+00
8.000000e+00
9.000000e+00
1.000000e+01
-1.000000e+00
-1.000000e+00
-1.000000e+00
-1.000000e+00
-1.000000e+00
1.100000e+01
-1.000000e+00
-1.000000e+00
1.200000e+01
-1.000000e+00
-1.000000e+00
-1.000000e+00
-1.000000e+00
1.300000e+01
1.400000e+01
-1.000000e+00
-1.000000e+00
-1.000000e+00
-1.000000e+00
-1.000000e+00
-1.000000e+00
-1.000000e+00
1.500000e+01
-1.000000e+00
-1.000000e+00
1.600000e+01
-1.000000e+00
-1.000000e+00
-1.000000e+00
1.700000e+01
-1.000000e+00
-1.000000e+00
1.800000e+01
-1.000000e+00
-1.000000e+00
-1.000000e+00
-1.000000e+00
1.900000e+01
-1.000000e+00
-1.000000e+00
-1.000000e+00
-1.000000e+00
-1.000000e+00
-1.000000e+00
-1.000000e+00
-1.000000e+00
-1.000000e+00
-1.000000e+00
-1.000000e+00
-1.000000e+00
-1.000000e+00
-1.000000e+00
-1.000000e+00
-1.000000e+00
-1.000000e+00
-1.000000e+00
-1.000000e+00
</DataArray>
<DataArray Name="mesh_vars/Nodes_grNI" type="Float64" NumberOfComponents="1" format="ascii">
0.000000e+00
1.000000e+00
2.000000e+00
-1.000000e+00
-1.000000e+00
-1.000000e+00
3.000000e+00
-1.000000e+00
-1.000000e+00
4.000000e+00
-1.000000e+00
-1.000000e+00
5.000000e+00
-1.000000e+00
-1.000000e+00
6.000000e+00
-1.000000e+00
-1.000000e+00
7.000000e+00
-1.000000e+00
-1.000000e+00
8.000000e+00
9.000000e+00
1.000000e+01
-1.000000e+00
-1.000000e+00
-1.000000e+00
-1.000000e+00
-1.000000e+00
1.100000e+01
-1.000000e+00
-1.000000e+00
1.200000e+01
-1.000000e+00
-1.000000e+00
-1.000000e+00
-1.000000e+00
1.300000e+01
1.400000e+01
-1.000000e+00
-1.000000e+00
-1.000000e+00
-1.000000e+00
-1.000000e+00
-1.000000e+00
-1.000000e+00
1.500000e+01
-1.000000e+00
-1.000000e+00
1.600000e+01
-1.000000e+00
-1.000000e+00
-1.000000e+00
1.700000e+01
-1.000000e+00
-1.000000e+00
1.800000e+01
-1.000000e+00
-1.000000e+00
-1.000000e+00
-1.000000e+00
1.900000e+01
-1.000000e+00
-1.000000e+00
-1.000000e+00
-1.000000e+00
-1.000000e+00
-1.000000e+00
-1.000000e+00
-1.000000e+00
-1.000000e+00
-1.000000e+00
-1.000000e+00
-1.000000e+00
-1.000000e+00
-1.000000e+00
-1.000000e+00
-1.000000e+00
-1.000000e+00
-1.000000e+00
-1.000000e+00
</DataArray>
</PointData>
<CellData>
<DataArray Name="data_s" type="Float64" NumberOfComponents="1" format="ascii">
9.309017e-01
8.750000e-01
9.309017e-01
9.309017e-01
7.072949e-01
8.750000e-01
8.750000e-01
8.750000e-01
9.309017e-01
8.750000e-01
7.072949e-01
9.309017e-01
9.309017e-01
8.750000e-01
8.750000e-01
8.750000e-01
6.381966e-01
7.500000e-01
8.618034e-01
6.381966e-01
8.618034e-01
7.500000e-01
7.500000e-01
7.500000e-01
9.309017e-01
8.750000e-01
9.309017e-01
9.309017e-01
7.072949e-01
8.750000e-01
8.750000e-01
8.750000e-01
7.072949e-01
8.750000e-01
9.309017e-01
9.309017e-01
9.309017e-01
8.750000e-01
8.750000e-01
8.750000e-01
9.309017e-01
8.750000e-01
9.309017e-01
7.072949e-01
9.309017e-01
8.750000e-01
8.750000e-01
8.750000e-01
9.309017e-01
8.750000e-01
9.309017e-01
9.309017e-01
7.072949e-01
8.750000e-01
8.750000e-01
8.750000e-01
8.618034e-01
7.500000e-01
8.618034e-01
6.381966e-01
6.381966e-01
7.500000e-01
7.500000e-01
7.500000e-01
8.618034e-01
7.500000e-01
8.618034e-01
6.381966e-01
6.381966e-01
7.500000e-01
7.500000e-01
7.500000e-01
8.618034e-01
7.500000e-01
6.381966e-01
8.618034e-01
6.381966e-01
7.500000e-01
7.500000e-01
7.500000e-01
5.690983e-01
6.250000e-01
7.927051e-01
5.690983e-01
5.690983e-01
6.250000e-01
6.250000e-01
6.250000e-01
7.927051e-01
6.250000e-01
5.690983e-01
5.690983e-01
5.690983e-01
6.250000e-01
6.250000e-01
6.250000e-01
2.927051e-01
1.250000e-01
6.909830e-02
6.909830e-02
6.909830e-02
1.250000e-01
1.250000e-01
1.250000e-01
2.927051e-01
1.250000e-01
6.909830e-02
6.909830e-02
6.909830e-02
1.250000e-01
1.250000e-01
1.250000e-01
6.909830e-02
1.250000e-01
2.927051e-01
6.909830e-02
6.909830e-02
1.250000e-01
1.250000e-01
1.250000e-01
3.618034e-01
2.500000e-01
3.618034e-01
1.381966e-01
1.381966e-01
2.500000e-01
2.500000e-01
2.500000e-01
3.618034e-01
2.500000e-01
3.618034e-01
1.381966e-01
1.381966e-01
2.500000e-01
2.500000e-01
2.500000e-01
4.309017e-01
3.750000e-01
4.309017e-01
2.072949e-01
4.309017e-01
3.750000e-01
3.750000e-01
3.750000e-01
3.618034e-01
2.500000e-01
3.618034e-01
1.381966e-01
1.381966e-01
2.500000e-01
2.500000e-01
2.500000e-01
6.909830e-02
1.250000e-01
2.927051e-01
6.909830e-02
6.909830e-02
1.250000e-01
1.250000e-01
1.250000e-01
4.309017e-01
3.750000e-01
4.309017e-01
2.072949e-01
4.309017e-01
3.750000e-01
3.750000e-01
3.750000e-01
2.927051e-01
1.250000e-01
6.909830e-02
6.909830e-02
6.909830e-02
1.250000e-01
1.250000e-01
1.250000e-01
3.618034e-01
2.500000e-01
3.618034e-01
1.381966e-01
1.381966e-01
2.500000e-01
2.500000e-01
2.500000e-01
6.909830e-02
1.250000e-01
2.927051e-01
6.909830e-02
6.909830e-02
1.250000e-01
1.250000e-01
1.250000e-01
</DataArray>
<DataArray Name="data_t" type="Float64" NumberOfComponents="9" format="ascii">
1.023992e+01 1.954893e+01 2.885795e+01 1.117082e+01 2.047984e+01 2.978885e+01 1.210172e+01 2.141074e+01 3.071976e+01
9.625000e+00 1.837500e+01 2.712500e+01 1.050000e+01 1.925000e+01 2.800000e+01 1.137500e+01 2.012500e+01 2.887500e+01
1.023992e+01 1.954893e+01 2.885795e+01 1.117082e+01 2.047984e+01 2.978885e+01 1.210172e+01 2.141074e+01 3.071976e+01
1.023992e+01 1.954893e+01 2.885795e+01 1.117082e+01 2.047984e+01 2.978885e+01 1.210172e+01 2.141074e+01 3.071976e+01
7.780244e+00 1.485319e+01 2.192614e+01 8.487539e+00 1.556049e+01 2.263344e+01 9.194834e+00 1.626778e+01 2.334073e+01
9.625000e+00 1.837500e+01 2.712500e+01 1.050000e+01 1.925000e+01 2.800000e+01 1.137500e+01 2.012500e+01 2.887500e+01
9.625000e+00 1.837500e+01 2.712500e+01 1.050000e+01 1.925000e+01 2.800000e+01 1.137500e+01 2.012500e+01 2.887500e+01
9.625000e+00 1.837500e+01 2.712500e+01 1.050000e+01 1.925000e+01 2.800000e+01 1.137500e+01 2.012500e+01 2.887500e+01
1.023992e+01 1.954893e+01 2.885795e+01 1.117082e+01 2.047984e+01 2.978885e+01 1.210172e+01 2.141074e+01 3.071976e+01
9.625000e+00 1.837500e+01 2.712500e+01 1.050000e+01 1.925000e+01 2.800000e+01 1.137500e+01 2.012500e+01 2.887500e+01
7.780244e+00 1.485319e+01 2.192614e+01 8.487539e+00 1.556049e+01 2.263344e+01 9.194834e+00 1.626778e+01 2.334073e+01
1.023992e+01 1.954893e+01 2.885795e+01 1.117082e+01 2.047984e+01 2.978885e+01 1.210172e+01 2.141074e+01 3.071976e+01
1.023992e+01 1.954893e+01 2.885795e+01 1.117082e+01 2.047984e+01 2.978885e+01 1.210172e+01 2.141074e+01 3.071976e+01
9.625000e+00 1.837500e+01 2.712500e+01 1.050000e+01 1.925000e+01 2.800000e+01 1.137500e+01 2.012500e+01 2.887500e+01
9.625000e+00 1.837500e+01 2.712500e+01 1.050000e+01 1.925000e+01 2.800000e+01 1.137500e+01 2.012500e+01 2.887500e+01
9.625000e+00 1.837500e+01 2.712500e+01 1.050000e+01 1.925000e+01 2.800000e+01 1.137500e+01 2.012500e+01 2.887500e+01
7.020163e+00 1.340213e+01 1.978409e+01 7.658359e+00 1.404033e+01 2.042229e+01 8.296556e+00 1.467852e+01 2.106049e+01
8.250000e+00 1.575000e+01 2.325000e+01 9.000000e+00 1.650000e+01 2.400000e+01 9.750000e+00 1.725000e+01 2.475000e+01
9.479837e+00 1.809787e+01 2.671591e+01 1.034164e+01 1.895967e+01 2.757771e+01 1.120344e+01 1.982148e+01 2.843951e+01
7.020163e+00 1.340213e+01 1.978409e+01 7.658359e+00 1.404033e+01 2.042229e+01 8.296556e+00 1.467852e+01 2.106049e+01
9.479837e+00 1.809787e+01 2.671591e+01 1.034164e+01 1.895967e+01 2.757771e+01 1.120344e+01 1.982148e+01 2.843951e+01
8.250000e+00 1.575000e+01 2.325000e+01 9.000000e+00 1.650000e+01 2.400000e+01 9.750000e+00 1.725000e+01 2.475000e+01
8.250000e+00 1.575000e+01 2.325000e+01 9.000000e+00 1.650000e+01 2.400000e+01 9.750000e+00 1.725000e+01 2.475000e+01
8.250000e+00 1.575000e+01 2.325000e+01 9.000000e+00 1.650000e+01 2.400000e+01 9.750000e+00 1.725000e+01 2.475000e+01
1.023992e+01 1.954893e+01 2.885795e+01 1.117082e+01 2.047984e+01 2.978885e+01 1.210172e+01 2.141074e+01 3.071976e+01
9.625000e+00 1.837500e+01 2.712500e+01 1.050000e+01 1.925000e+01 2.800000e+01 1.137500e+01 2.012500e+01 2.887500e+01
1.023992e+01 1.954893e+01 2.885795e+01 1.117082e+01 2.047984e+01 2.978885e+01 1.210172e+01 2.141074e+01 3.071976e+01
1.023992e+01 1.954893e+01 2.885795e+01 1.117082e+01 2.047984e+01 2.978885e+01 1.210172e+01 2.141074e+01 3.071976e+01
7.780244e+00 1.485319e+01 2.192614e+01 8.487539e+00 1.556049e+01 2.263344e+01 9.194834e+00 1.626778e+01 2.334073e+01
9.625000e+00 1.837500e+01 2.712500e+01 1.050000e+01 1.925000e+01 2.800000e+01 1.137500e+01 2.012500e+01 2.887500e+01
9.625000e+00 1.837500e+01 2.712500e+01 1.050000e+01 1.925000e+01 2.800000e+01 1.137500e+01 2.012500e+01 2.887500e+01
9.625000e+00 1.837500e+01 2.712500e+01 1.050000e+01 1.925000e+01 2.800000e+01 1.137500e+01 2.012500e+01 2.887500e+01
7.780244e+00 1.485319e+01 2.192614e+01 8.487539e+00 1.556049e+01 2.263344e+01 9.194834e+00 1.626778e+01 2.334073e+01
9.625000e+00 1.837500e+01 2.712500e+01 1.050000e+01 1.925000e+01 2.800000e+01 1.137500e+01 2.012500e+01 2.887500e+01
1.023992e+01 1.954893e+01 2.885795e+01 1.117082e+01 2.047984e+01 2.978885e+01 1.210172e+01 2.141074e+01 3.071976e+01
1.023992e+01 1.954893e+01 2.885795e+01 1.117082e+01 2.047984e+01 2.978885e+01 1.210172e+01 2.141074e+01 3.071976e+01
1.023992e+01 1.954893e+01 2.885795e+01 1.117082e+01 2.047984e+01 2.978885e+01 1.210172e+01 2.141074e+01 3.071976e+01
9.625000e+00 1.837500e+01 2.712500e+01 1.050000e+01 1.925000e+01 2.800000e+01 1.137500e+01 2.012500e+01 2.887500e+01
9.625000e+00 1.837500e+01 2.712500e+01 1.050000e+01 1.925000e+01 2.800000e+01 1.137500e+01 2.012500e+01 2.887500e+01
9.625000e+00 1.837500e+01 2.712500e+01 1.050000e+01 1.925000e+01 2.800000e+01 1.137500e+01 2.012500e+01 2.887500e+01
1.023992e+01 1.954893e+01 2.885795e+01 1.117082e+01 2.047984e+01 2.978885e+01 1.210172e+01 2.141074e+01 3.071976e+01
9.625000e+00 1.837500e+01 2.712500e+01 1.050000e+01 1.925000e+01 2.800000e+01 1.137500e+01 2.012500e+01 2.887500e+01
1.023992e+01 1.954893e+01 2.885795e+01 1.117082e+01 2.047984e+01 2.978885e+01 1.210172e+01 2.141074e+01 3.071976e+01
7.780244e+00 1.485319e+01 2.192614e+01 8.487539e+00 1.556049e+01 2.263344e+01 9.194834e+00 1.626778e+01 2.334073e+01
1.023992e+01 1.954893e+01 2.885795e+01 1.117082e+01 2.047984e+01 2.978885e+01 1.210172e+01 2.141074e+01 3.071976e+01
9.625000e+00 1.837500e+01 2.712500e+01 1.050000e+01 1.925000e+01 2.800000e+01 1.137500e+01 2.012500e+01 2.887500e+01
9.625000e+00 1.837500e+01 2.712500e+01 1.050000e+01 1.925000e+01 2.800000e+01 1.137500e+01 2.012500e+01 2.887500e+01
9.625000e+00 1.837500e+01 2.712500e+01 1.050000e+01 1.925000e+01 2.800000e+01 1.137500e+01 2.012500e+01 2.887500e+01
1.023992e+01 1.954893e+01 2.885795e+01 1.117082e+01 2.047984e+01 2.978885e+01 1.210172e+01 2.141074e+01 3.071976e+01
9.625000e+00 1.837500e+01 2.712500e+01 1.050000e+01 1.925000e+01 2.800000e+01 1.137500e+01 2.012500e+01 2.887500e+01
1.023992e+01 1.954893e+01 2.885795e+01 1.117082e+01 2.047984e+01 2.978885e+01 1.210172e+01 2.141074e+01 3.071976e+01
1.023992e+01 1.954893e+01 2.885795e+01 1.117082e+01 2.047984e+01 2.978885e+01 1.210172e+01 2.141074e+01 3.071976e+01
7.780244e+00 1.485319e+01 2.192614e+01 8.487539e+00 1.556049e+01 2.263344e+01 9.194834e+00 1.626778e+01 2.334073e+01
9.625000e+00 1.837500e+01 2.712500e+01 1.050000e+01 1.925000e+01 2.800000e+01 1.137500e+01 2.012500e+01 2.887500e+01
9.625000e+00 1.837500e+01 2.712500e+01 1.050000e+01 1.925000e+01 2.800000e+01 1.137500e+01 2.012500e+01 2.887500e+01
9.625000e+00 1.837500e+01 2.712500e+01 1.050000e+01 1.925000e+01 2.800000e+01 1.137500e+01 2.012500e+01 2.887500e+01
9.479837e+00 1.809787e+01 2.671591e+01 1.034164e+01 1.895967e+01 2.757771e+01 1.120344e+01 1.982148e+01 2.843951e+01
8.250000e+00 1.575000e+01 2.325000e+01 9.000000e+00 1.650000e+01 2.400000e+01 9.750000e+00 1.725000e+01 2.475000e+01
9.479837e+00 1.809787e+01 2.671591e+01 1.034164e+01 1.895967e+01 2.757771e+01 1.120344e+01 1.982148e+01 2.843951e+01
7.020163e+00 1.340213e+01 1.978409e+01 7.658359e+00 1.404033e+01 2.042229e+01 8.296556e+00 1.467852e+01 2.106049e+01
7.020163e+00 1.340213e+01 1.978409e+01 7.658359e+00 1.404033e+01 2.042229e+01 8.296556e+00 1.467852e+01 2.106049e+01
8.250000e+00 1.575000e+01 2.325000e+01 9.000000e+00 1.650000e+01 2.400000e+01 9.750000e+00 1.725000e+01 2.475000e+01
8.250000e+00 1.575000e+01 2.325000e+01 9.000000e+00 1.650000e+01 2.400000e+01 9.750000e+00 1.725000e+01 2.475000e+01
8.250000e+00 1.575000e+01 2.325000e+01 9.000000e+00 1.650000e+01 2.400000e+01 9.750000e+00 1.725000e+01 2.475000e+01
9.479837e+00 1.809787e+01 2.671591e+01 1.034164e+01 1.895967e+01 2.757771e+01 1.120344e+01 1.982148e+01 2.843951e+01
8.250000e+00 1.575000e+01 2.325000e+01 9.000000e+00 1.650000e+01 2.400000e+01 9.750000e+00 1.725000e+01 2.475000e+01
9.479837e+00 1.809787e+01 2.671591e+01 1.034164e+01 1.895967e+01 2.757771e+01 1.120344e+01 1.982148e+01 2.843951e+01
7.020163e+00 1.340213e+01 1.978409e+01 7.658359e+00 1.404033e+01 2.042229e+01 8.296556e+00 1.467852e+01 2.106049e+01
7.020163e+00 1.340213e+01 1.978409e+01 7.658359e+00 1.404033e+01 2.042229e+01 8.296556e+00 1.467852e+01 2.106049e+01
8.250000e+00 1.575000e+01 2.325000e+01 9.000000e+00 1.650000e+01 2.400000e+01 9.750000e+00 1.725000e+01 2.475000e+01
8.250000e+00 1.575000e+01 2.325000e+01 9.000000e+00 1.650000e+01 2.400000e+01 9.750000e+00 1.725000e+01 2.475000e+01
8.250000e+00 1.575000e+01 2.325000e+01 9.000000e+00 1.650000e+01 2.400000e+01 9.750000e+00 1.725000e+01 2.475000e+01
9.479837e+00 1.809787e+01 2.671591e+01 1.034164e+01 1.895967e+01 2.757771e+01 1.120344e+01 1.982148e+01 2.843951e+01
8.250000e+00 1.575000e+01 2.325000e+01 9.000000e+00 1.650000e+01 2.400000e+01 9.750000e+00 1.725000e+01 2.475000e+01
7.020163e+00 1.340213e+01 1.978409e+01 7.658359e+00 1.404033e+01 2.042229e+01 8.296556e+00 1.467852e+01 2.106049e+01
9.479837e+00 1.809787e+01 2.671591e+01 1.034164e+01 1.895967e+01 2.757771e+01 1.120344e+01 1.982148e+01 2.843951e+01
7.020163e+00 1.340213e+01 1.978409e+01 7.658359e+00 1.404033e+01 2.042229e+01 8.296556e+00 1.467852e+01 2.106049e+01
8.250000e+00 1.575000e+01 2.325000e+01 9.000000e+00 1.650000e+01 2.400000e+01 9.750000e+00 1.725000e+01 2.475000e+01
8.250000e+00 1.575000e+01 2.325000e+01 9.000000e+00 1.650000e+01 2.400000e+01 9.750000e+00 1.725000e+01 2.475000e+01
8.250000e+00 1.575000e+01 2.325000e+01 9.000000e+00 1.650000e+01 2.400000e+01 9.750000e+00 1.725000e+01 2.475000e+01
6.260081e+00 1.195106e+01 1.764205e+01 6.829180e+00 1.252016e+01 1.821115e+01 7.398278e+00 1.308926e+01 1.878024e+01
6.875000e+00 1.312500e+01 1.937500e+01 7.500000e+00 1.375000e+01 2.000000e+01 8.125000e+00 1.437500e+01 2.062500e+01
8.719756e+00 1.664681e+01 2.457386e+01 9.512461e+00 1.743951e+01 2.536656e+01 1.030517e+01 1.823222e+01 2.615927e+01
6.260081e+00 1.195106e+01 1.764205e+01 6.829180e+00 1.252016e+01 1.821115e+01 7.398278e+00 1.308926e+01 1.878024e+01
6.260081e+00 1.195106e+01 1.764205e+01 6.829180e+00 1.252016e+01 1.821115e+01 7.398278e+00 1.308926e+01 1.878024e+01
6.875000e+00 1.312500e+01 1.937500e+01 7.500000e+00 1.375000e+01 2.000000e+01 8.125000e+00 1.437500e+01 2.062500e+01
6.875000e+00 1.312500e+01 1.937500e+01 7.500000e+00 1.375000e+01 2.000000e+01 8.125000e+00 1.437500e+01 2.062500e+01
6.875000e+00 1.312500e+01 1.937500e+01 7.500000e+00 1.375000e+01 2.000000e+01 8.125000e+00 1.437500e+01 2.062500e+01
8.719756e+00 1.664681e+01 2.457386e+01 9.512461e+00 1.743951e+01 2.536656e+01 1.030517e+01 1.823222e+01 2.615927e+01
6.875000e+00 1.312500e+01 1.937500e+01 7.500000e+00 1.375000e+01 2.000000e+01 8.125000e+00 1.437500e+01 2.062500e+01
6.260081e+00 1.195106e+01 1.764205e+01 6.829180e+00 1.252016e+01 1.821115e+01 7.398278e+00 1.308926e+01 1.878024e+01
6.260081e+00 1.195106e+01 1.764205e+01 6.829180e+00 1.252016e+01 1.821115e+01 7.398278e+00 1.308926e+01 1.878024e+01
6.260081e+00 1.195106e+01 1.764205e+01 6.829180e+00 1.252016e+01 1.821115e+01 7.398278e+00 1.308926e+01 1.878024e+01
6.875000e+00 1.312500e+01 1.937500e+01 7.500000e+00 1.375000e+01 2.000000e+01 8.125000e+00 1.437500e+01 2.062500e+01
6.875000e+00 1.312500e+01 1.937500e+01 7.500000e+00 1.375000e+01 2.000000e+01 8.125000e+00 1.437500e+01 2.062500e+01
6.875000e+00 1.312500e+01 1.937500e+01 7.500000e+00 1.375000e+01 2.000000e+01 8.125000e+00 1.437500e+01 2.062500e+01
3.219756e+00 6.146807e+00 9.073858e+00 3.512461e+00 6.439512e+00 9.366563e+00 3.805166e+00 6.732217e+00 9.659268e+00
1.375000e+00 2.625000e+00 3.875000e+00 1.500000e+00 2.750000e+00 4.000000e+00 1.625000e+00 2.875000e+00 4.125000e+00
7.600813e-01 1.451064e+00 2.142047e+00 8.291796e-01 1.520163e+00 2.211146e+00 8.982779e-01 1.589261e+00 2.280244e+00
7.600813e-01 1.451064e+00 2.142047e+00 8.291796e-01 1.520163e+00 2.211146e+00 8.982779e-01 1.589261e+00 2.280244e+00
7.600813e-01 1.451064e+00 2.142047e+00 8.291796e-01 1.520163e+00 2.211146e+00 8.982779e-01 1.589261e+00 2.280244e+00
1.375000e+00 2.625000e+00 3.875000e+00 1.500000e+00 2.750000e+00 4.000000e+00 1.625000e+00 2.875000e+00 4.125000e+00
1.375000e+00 2.625000e+00 3.875000e+00 1.500000e+00 2.750000e+00 4.000000e+00 1.625000e+00 2.875000e+00 4.125000e+00
1.375000e+00 2.625000e+00 3.875000e+00 1.500000e+00 2.750000e+00 4.000000e+00 1.625000e+00 2.875000e+00 4.125000e+00
3.219756e+00 6.146807e+00 9.073858e+00 3.512461e+00 6.439512e+00 9.366563e+00 3.805166e+00 6.732217e+00 9.659268e+00
1.375000e+00 2.625000e+00 3.875000e+00 1.500000e+00 2.750000e+00 4.000000e+00 1.625000e+00 2.875000e+00 4.125000e+00
7.600813e-01 1.451064e+00 2.142047e+00 8.291796e-01 1.520163e+00 2.211146e+00 8.982779e-01 1.589261e+00 2.280244e+00
7.600813e-01 1.451064e+00 2.142047e+00 8.291796e-01 1.520163e+00 2.211146e+00 8.982779e-01 1.589261e+00 2.280244e+00
7.600813e-01 1.451064e+00 2.142047e+00 8.291796e-01 1.520163e+00 2.211146e+00 8.982779e-01 1.589261e+00 2.280244e+00