<?xml version="1.0"?>
<VTKFile type="UnstructuredGrid" version="0.1">
<UnstructuredGrid>
<FieldData>
<DataArray Name="TIME" type="Float64" format="ascii" NumberOfTuples="1">
0.000000e+00
</DataArray>
</FieldData>
<FieldData>
<DataArray Name="CYCLE" type="Int32" format="ascii" NumberOfTuples="1">
0
</DataArray>
</FieldData>
<Piece NumberOfPoints="53" NumberOfCells="80">
<Points>
<DataArray NumberOfComponents="3" type="Float64" format="ascii">
1.000000e+00 1.000000e+00 0.000000e+00
1.000000e+00 6.666667e-01 0.000000e+00
1.000000e+00 8.333333e-01 0.000000e+00
1.000000e+00 3.333333e-01 0.000000e+00
1.000000e+00 5.000000e-01 0.000000e+00
1.000000e+00 0.000000e+00 0.000000e+00
1.000000e+00 1.666667e-01 0.000000e+00
6.666667e-01 0.000000e+00 0.000000e+00
8.333333e-01 0.000000e+00 0.000000e+00
3.333333e-01 0.000000e+00 0.000000e+00
5.000000e-01 0.000000e+00 0.000000e+00
0.000000e+00 0.000000e+00 0.000000e+00
1.666667e-01 0.000000e+00 0.000000e+00
0.000000e+00 1.000000e+00 0.000000e+00
0.000000e+00 6.666667e-01 0.000000e+00
0.000000e+00 8.333333e-01 0.000000e+00
0.000000e+00 3.333333e-01 0.000000e+00
0.000000e+00 5.000000e-01 0.000000e+00
0.000000e+00 1.666667e-01 0.000000e+00
3.333333e-01 1.000000e+00 0.000000e+00
1.666667e-01 1.000000e+00 0.000000e+00
6.666667e-01 1.000000e+00 0.000000e+00
5.000000e-01 1.000000e+00 0.000000e+00
8.333333e-01 1.000000e+00 0.000000e+00
7.014658e-01 2.986558e-01 0.000000e+00
3.239390e-01 2.773111e-01 0.000000e+00
6.840662e-01 1.493279e-01 0.000000e+00
4.953028e-01 1.386555e-01 0.000000e+00
5.127023e-01 2.879834e-01 0.000000e+00
3.286361e-01 1.386555e-01 0.000000e+00
3.050581e-01 6.950284e-01 0.000000e+00
1.619695e-01 3.053222e-01 0.000000e+00
1.525290e-01 5.141808e-01 0.000000e+00
3.144985e-01 4.861697e-01 0.000000e+00
1.525290e-01 6.808475e-01 0.000000e+00
7.227778e-01 6.761019e-01 0.000000e+00
6.947222e-01 8.380510e-01 0.000000e+00
5.139179e-01 6.855651e-01 0.000000e+00
4.858623e-01 8.475142e-01 0.000000e+00
8.507329e-01 3.159946e-01 0.000000e+00
7.121218e-01 4.873788e-01 0.000000e+00
8.613889e-01 5.047176e-01 0.000000e+00
3.191957e-01 8.475142e-01 0.000000e+00
8.613889e-01 6.713843e-01 0.000000e+00
5.000690e-01 5.000334e-01 0.000000e+00
6.007674e-01 3.993446e-01 0.000000e+00
4.120040e-01 3.886723e-01 0.000000e+00
1.525290e-01 8.475142e-01 0.000000e+00
8.613889e-01 8.380510e-01 0.000000e+00
8.507329e-01 1.493279e-01 0.000000e+00
4.025635e-01 5.975309e-01 0.000000e+00
6.114234e-01 5.880677e-01 0.000000e+00
1.619695e-01 1.386555e-01 0.000000e+00
</DataArray>
</Points>
<Cells>
<DataArray Name="connectivity" type="Int32" format="ascii">
21 23 36
36 48 35
23 0 48
48 36 23
0 2 48
48 43 35
2 1 43
43 48 2
1 4 43
43 41 35
4 3 41
41 43 4
3 39 41
41 40 35
39 24 40
40 41 39
3 6 39
39 49 24
6 5 49
49 39 6
5 8 49
49 26 24
8 7 26
26 49 8
24 26 28
28 27 25
26 7 27
27 28 26
7 10 27
27 29 25
10 9 29
29 27 10
9 12 29
29 52 25
12 11 52
52 29 12
11 18 52
52 31 25
18 16 31
31 52 18
13 20 47
47 42 30
20 19 42
42 47 20
14 15 34
34 47 30
15 13 47
47 34 15
16 17 32
32 34 30
17 14 34
34 32 17
25 31 33
33 32 30
31 16 32
32 33 31
19 22 42
42 38 30
22 21 38
38 42 22
21 36 38
38 37 30
36 35 37
37 38 36
44 45 46
46 28 25
45 24 28
28 46 45
24 45 40
40 51 35
45 44 51
51 40 45
44 46 50
50 33 30
46 25 33
33 50 46
35 51 37
37 50 30
51 44 50
50 37 51
</DataArray>
<DataArray Name="offsets" type="Int32" format="ascii">
3
6
9
12
15
18
21
24
27
30
33
36
39
42
45
48
51
54
57
60
63
66
69
72
75
78
81
84
87
90
93
96
99
102
105
108
111
114
117
120
123
126
129
132
135
138
141
144
147
150
153
156
159
162
165
168
171
174
177
180
183
186
189
192
195
198
201
204
207
210
213
216
219
222
225
228
231
234
237
240
</DataArray>
<DataArray Name="types" type="UInt8" format="ascii">
5
5
5
5
5
5
5
5
5
5
5
5
5
5
5
5
5
5
5
5
5
5
5
5
5
5
5
5
5
5
5
5
5
5
5
5
5
5
5
5
5
5
5
5
5
5
5
5
5
5
5
5
5
5
5
5
5
5
5
5
5
5
5
5
5
5
5
5
5
5
5
5
5
5
5
5
5
5
5
5
</DataArray>
</Cells>
<PointData>
<DataArray Name="mesh_vars/Nodes_Id" type="Float64" NumberOfComponents="1" format="ascii">
0.000000e+00
1.000000e+00
2.000000e+00
3.000000e+00
4.000000e+00
5.000000e+00
6.000000e+00
7.000000e+00
8.000000e+00
9.000000e+00
1.000000e+01
1.100000e+01
1.200000e+01
1.300000e+01
1.400000e+01
1.500000e+01
1.600000e+01
1.700000e+01
1.800000e+01
1.900000e+01
2.000000e+01
2.100000e+01
2.200000e+01
2.300000e+01
2.400000e+01
2.500000e+01
2.600000e+01
2.700000e+01
2.800000e+01
2.900000e+01
3.000000e+01
3.100000e+01
3.200000e+01
3.300000e+01
3.400000e+01
3.500000e+01
3.600000e+01
3.700000e+01
3.800000e+01
3.900000e+01
4.000000e+01
4.100000e+01
4.200000e+01
4.300000e+01
4.400000e+01
4.500000e+01
4.600000e+01
4.700000e+01
4.800000e+01
4.900000e+01
5.000000e+01
5.100000e+01
5.200000e+01
</DataArray>
<DataArray Name="mesh_vars/Nodes_Tag" type="Float64" NumberOfComponents="1" format="ascii">
0.000000e+00
0.000000e+00
0.000000e+00
0.000000e+00
0.000000e+00
0.000000e+00
0.000000e+00
0.000000e+00
0.000000e+00
0.000000e+00
0.000000e+00
0.000000e+00
0.000000e+00
0.000000e+00
0.000000e+00
0.000000e+00
0.000000e+00
0.000000e+00
0.000000e+00
0.000000e+00
0.000000e+00
0.000000e+00
0.000000e+00
0.000000e+00
0.000000e+00
0.000000e+00
0.000000e+00
0.000000e+00
0.000000e+00
0.000000e+00
0.000000e+00
0.000000e+00
0.000000e+00
0.000000e+00
0.000000e+00
0.000000e+00
0.000000e+00
0.000000e+00
0.000000e+00
0.000000e+00
0.000000e+00
0.000000e+00
0.000000e+00
0.000000e+00
0.000000e+00
0.000000e+00
0.000000e+00
0.000000e+00
0.000000e+00
0.000000e+00
0.000000e+00
0.000000e+00
0.000000e+00
</DataArray>
<DataArray Name="mesh_vars/Nodes_gDOF" type="Float64" NumberOfComponents="1" format="ascii">
0.000000e+00
1.000000e+00
2.000000e+00
3.000000e+00
4.000000e+00
5.000000e+00
6.000000e+00
7.000000e+00
8.000000e+00
9.000000e+00
1.000000e+01
1.100000e+01
1.200000e+01
1.300000e+01
1.400000e+01
1.500000e+01
1.600000e+01
1.700000e+01
1.800000e+01
1.900000e+01
2.000000e+01
2.100000e+01
2.200000e+01
2.300000e+01
2.400000e+01
2.500000e+01
2.600000e+01
2.700000e+01
2.800000e+01
2.900000e+01
3.000000e+01
3.100000e+01
3.200000e+01
3.300000e+01
3.400000e+01
3.500000e+01
3.600000e+01
3.700000e+01
3.800000e+01
3.900000e+01
4.000000e+01
4.100000e+01
4.200000e+01
4.300000e+01
4.400000e+01
4.500000e+01
4.600000e+01
4.700000e+01
4.800000e+01
4.900000e+01
5.000000e+01
5.100000e+01
5.200000e+01
</DataArray>
<DataArray Name="mesh_vars/Nodes_gNI" type="Float64" NumberOfComponents="1" format="ascii">
0.000000e+00
1.000000e+00
2.000000e+00
3.000000e+00
4.000000e+00
5.000000e+00
6.000000e+00
7.000000e+00
8.000000e+00
9.000000e+00
1.000000e+01
1.100000e+01
1.200000e+01
1.300000e+01
1.400000e+01
1.500000e+01
1.600000e+01
1.700000e+01
1.800000e+01
1.900000e+01
2.000000e+01
2.100000e+01
2.200000e+01
2.300000e+01
2.400000e+01
2.500000e+01
2.600000e+01
2.700000e+01
2.800000e+01
2.900000e+01
3.000000e+01
3.100000e+01
3.200000e+01
3.300000e+01
3.400000e+01
3.500000e+01
3.600000e+01
3.700000e+01
3.800000e+01
3.900000e+01
4.000000e+01
4.100000e+01
4.200000e+01
4.300000e+01
4.400000e+01
4.500000e+01
4.600000e+01
4.700000e+01
4.800000e+01
4.900000e+01
5.000000e+01
5.100000e+01
5.200000e+01
</DataArray>
<DataArray Name="mesh_vars/Nodes_grDfI" type="Float64" NumberOfComponents="1" format="ascii">
0.000000e+00
1.000000e+00
-1.000000e+00
2.000000e+00
-1.000000e+00
3.000000e+00
-1.000000e+00
4.000000e+00
-1.000000e+00
5.000000e+00
-1.000000e+00
6.000000e+00
-1.000000e+00
7.000000e+00
8.000000e+00
-1.000000e+00
9.000000e+00
-1.000000e+00
-1.000000e+00
1.000000e+01
-1.000000e+00
1.100000e+01
-1.000000e+00
-1.000000e+00
1.200000e+01
1.300000e+01
-1.000000e+00
-1.000000e+00
-1.000000e+00
-1.000000e+00
1.400000e+01
-1.000000e+00
-1.000000e+00
-1.000000e+00
-1.000000e+00
1.500000e+01
-1.000000e+00
-1.000000e+00
-1.000000e+00
-1.000000e+00
-1.000000e+00
-1.000000e+00
-1.000000e+00
-1.000000e+00
1.600000e+01
-1.000000e+00
-1.000000e+00
-1.000000e+00
-1.000000e+00
-1.000000e+00
-1.000000e+00
-1.000000e+00
-1.000000e+00
</DataArray>
<DataArray Name="mesh_vars/Nodes_grNI" type="Float64" NumberOfComponents="1" format="ascii">
0.000000e+00
1.000000e+00
-1.000000e+00
2.000000e+00
-1.000000e+00
3.000000e+00
-1.000000e+00
4.000000e+00
-1.000000e+00
5.000000e+00
-1.000000e+00
6.000000e+00
-1.000000e+00
7.000000e+00
8.000000e+00
-1.000000e+00
9.000000e+00
-1.000000e+00
-1.000000e+00
1.000000e+01
-1.000000e+00
1.100000e+01
-1.000000e+00
-1.000000e+00
1.200000e+01
1.300000e+01
-1.000000e+00
-1.000000e+00
-1.000000e+00
-1.000000e+00
1.400000e+01
-1.000000e+00
-1.000000e+00
-1.000000e+00
-1.000000e+00
1.500000e+01
-1.000000e+00
-1.000000e+00
-1.000000e+00
-1.000000e+00
-1.000000e+00
-1.000000e+00
-1.000000e+00
-1.000000e+00
1.600000e+01
-1.000000e+00
-1.000000e+00
-1.000000e+00
-1.000000e+00
-1.000000e+00
-1.000000e+00
-1.000000e+00
-1.000000e+00
</DataArray>
</PointData>
<CellData>
<DataArray Name="data_s" type="Float64" NumberOfComponents="1" format="ascii">
7.315741e-01
7.596297e-01
8.982407e-01
7.964815e-01
9.537963e-01
8.151852e-01
9.537963e-01
9.075926e-01
9.537963e-01
8.151852e-01
9.537963e-01
9.075926e-01
9.040406e-01
7.654295e-01
7.547735e-01
8.080812e-01
9.502443e-01
8.009772e-01
9.502443e-01
9.004886e-01
8.946887e-01
7.454216e-01
7.280221e-01
7.893775e-01
6.327448e-01
4.439814e-01
6.153452e-01
5.640238e-01
5.539898e-01
3.826260e-01
3.873232e-01
4.413130e-01
2.762120e-01
2.715149e-01
1.095454e-01
2.190908e-01
5.398983e-02
2.159593e-01
5.398983e-02
1.079797e-01
1.063986e-01
2.589276e-01
2.730652e-01
2.127971e-01
5.084301e-02
2.033720e-01
5.084301e-02
1.016860e-01
5.084301e-02
2.033720e-01
5.084301e-02
1.016860e-01
2.668023e-01
2.573619e-01
1.048328e-01
2.096657e-01
3.841763e-01
3.700387e-01
5.508430e-01
4.350193e-01
6.157504e-01
4.349461e-01
6.438060e-01
5.648342e-01
5.042801e-01
4.162151e-01
6.049785e-01
5.084912e-01
6.714516e-01
6.821077e-01
5.707533e-01
6.414375e-01
4.382122e-01
3.407067e-01
3.501472e-01
3.763553e-01
6.160397e-01
4.071798e-01
5.046853e-01
5.093016e-01
</DataArray>
<DataArray Name="data_t" type="Float64" NumberOfComponents="9" format="ascii">
8.047315e+00 1.536306e+01 0.000000e+00 8.778889e+00 1.609463e+01 0.000000e+00 0.000000e+00 0.000000e+00 0.000000e+00
8.355927e+00 1.595222e+01 0.000000e+00 9.115556e+00 1.671185e+01 0.000000e+00 0.000000e+00 0.000000e+00 0.000000e+00
9.880649e+00 1.886306e+01 0.000000e+00 1.077889e+01 1.976130e+01 0.000000e+00 0.000000e+00 0.000000e+00 0.000000e+00
8.761296e+00 1.672611e+01 0.000000e+00 9.557777e+00 1.752259e+01 0.000000e+00 0.000000e+00 0.000000e+00 0.000000e+00
1.049176e+01 2.002972e+01 0.000000e+00 1.144556e+01 2.098352e+01 0.000000e+00 0.000000e+00 0.000000e+00 0.000000e+00
8.967037e+00 1.711889e+01 0.000000e+00 9.782223e+00 1.793407e+01 0.000000e+00 0.000000e+00 0.000000e+00 0.000000e+00
1.049176e+01 2.002972e+01 0.000000e+00 1.144556e+01 2.098352e+01 0.000000e+00 0.000000e+00 0.000000e+00 0.000000e+00
9.983519e+00 1.905944e+01 0.000000e+00 1.089111e+01 1.996704e+01 0.000000e+00 0.000000e+00 0.000000e+00 0.000000e+00
1.049176e+01 2.002972e+01 0.000000e+00 1.144556e+01 2.098352e+01 0.000000e+00 0.000000e+00 0.000000e+00 0.000000e+00
8.967037e+00 1.711889e+01 0.000000e+00 9.782223e+00 1.793407e+01 0.000000e+00 0.000000e+00 0.000000e+00 0.000000e+00
1.049176e+01 2.002972e+01 0.000000e+00 1.144556e+01 2.098352e+01 0.000000e+00 0.000000e+00 0.000000e+00 0.000000e+00
9.983519e+00 1.905944e+01 0.000000e+00 1.089111e+01 1.996704e+01 0.000000e+00 0.000000e+00 0.000000e+00 0.000000e+00
9.944447e+00 1.898485e+01 0.000000e+00 1.084849e+01 1.988889e+01 0.000000e+00 0.000000e+00 0.000000e+00 0.000000e+00
8.419724e+00 1.607402e+01 0.000000e+00 9.185154e+00 1.683945e+01 0.000000e+00 0.000000e+00 0.000000e+00 0.000000e+00
8.302508e+00 1.585024e+01 0.000000e+00 9.057281e+00 1.660502e+01 0.000000e+00 0.000000e+00 0.000000e+00 0.000000e+00
8.888893e+00 1.696971e+01 0.000000e+00 9.696975e+00 1.777779e+01 0.000000e+00 0.000000e+00 0.000000e+00 0.000000e+00
1.045269e+01 1.995513e+01 0.000000e+00 1.140293e+01 2.090537e+01 0.000000e+00 0.000000e+00 0.000000e+00 0.000000e+00
8.810749e+00 1.682052e+01 0.000000e+00 9.611726e+00 1.762150e+01 0.000000e+00 0.000000e+00 0.000000e+00 0.000000e+00
1.045269e+01 1.995513e+01 0.000000e+00 1.140293e+01 2.090537e+01 0.000000e+00 0.000000e+00 0.000000e+00 0.000000e+00
9.905375e+00 1.891026e+01 0.000000e+00 1.080586e+01 1.981075e+01 0.000000e+00 0.000000e+00 0.000000e+00 0.000000e+00
9.841577e+00 1.878846e+01 0.000000e+00 1.073627e+01 1.968315e+01 0.000000e+00 0.000000e+00 0.000000e+00 0.000000e+00
8.199638e+00 1.565385e+01 0.000000e+00 8.945060e+00 1.639928e+01 0.000000e+00 0.000000e+00 0.000000e+00 0.000000e+00
8.008243e+00 1.528846e+01 0.000000e+00 8.736265e+00 1.601649e+01 0.000000e+00 0.000000e+00 0.000000e+00 0.000000e+00
8.683152e+00 1.657693e+01 0.000000e+00 9.472529e+00 1.736630e+01 0.000000e+00 0.000000e+00 0.000000e+00 0.000000e+00
6.960193e+00 1.328764e+01 0.000000e+00 7.592937e+00 1.392039e+01 0.000000e+00 0.000000e+00 0.000000e+00 0.000000e+00
4.883795e+00 9.323609e+00 0.000000e+00 5.327776e+00 9.767591e+00 0.000000e+00 0.000000e+00 0.000000e+00 0.000000e+00
6.768797e+00 1.292225e+01 0.000000e+00 7.384143e+00 1.353759e+01 0.000000e+00 0.000000e+00 0.000000e+00 0.000000e+00
6.204262e+00 1.184450e+01 0.000000e+00 6.768286e+00 1.240852e+01 0.000000e+00 0.000000e+00 0.000000e+00 0.000000e+00
6.093888e+00 1.163379e+01 0.000000e+00 6.647878e+00 1.218778e+01 0.000000e+00 0.000000e+00 0.000000e+00 0.000000e+00
4.208886e+00 8.035146e+00 0.000000e+00 4.591512e+00 8.417771e+00 0.000000e+00 0.000000e+00 0.000000e+00 0.000000e+00
4.260555e+00 8.133786e+00 0.000000e+00 4.647878e+00 8.521110e+00 0.000000e+00 0.000000e+00 0.000000e+00 0.000000e+00
4.854443e+00 9.267572e+00 0.000000e+00 5.295756e+00 9.708886e+00 0.000000e+00 0.000000e+00 0.000000e+00 0.000000e+00
3.038332e+00 5.800453e+00 0.000000e+00 3.314545e+00 6.076665e+00 0.000000e+00 0.000000e+00 0.000000e+00 0.000000e+00
2.986664e+00 5.701812e+00 0.000000e+00 3.258178e+00 5.973327e+00 0.000000e+00 0.000000e+00 0.000000e+00 0.000000e+00
1.204999e+00 2.300453e+00 0.000000e+00 1.314545e+00 2.409998e+00 0.000000e+00 0.000000e+00 0.000000e+00 0.000000e+00
2.409998e+00 4.600906e+00 0.000000e+00 2.629089e+00 4.819997e+00 0.000000e+00 0.000000e+00 0.000000e+00 0.000000e+00
5.938881e-01 1.133786e+00 0.000000e+00 6.478779e-01 1.187776e+00 0.000000e+00 0.000000e+00 0.000000e+00 0.000000e+00
2.375552e+00 4.535145e+00 0.000000e+00 2.591512e+00 4.751105e+00 0.000000e+00 0.000000e+00 0.000000e+00 0.000000e+00
5.938881e-01 1.133786e+00 0.000000e+00 6.478779e-01 1.187776e+00 0.000000e+00 0.000000e+00 0.000000e+00 0.000000e+00
1.187776e+00 2.267573e+00 0.000000e+00 1.295756e+00 2.375552e+00 0.000000e+00 0.000000e+00 0.000000e+00 0.000000e+00
1.170384e+00 2.234370e+00 0.000000e+00 1.276783e+00 2.340768e+00 0.000000e+00 0.000000e+00 0.000000e+00 0.000000e+00
2.848203e+00 5.437479e+00 0.000000e+00 3.107131e+00 5.696407e+00 0.000000e+00 0.000000e+00 0.000000e+00 0.000000e+00
3.003717e+00 5.734370e+00 0.000000e+00 3.276783e+00 6.007435e+00 0.000000e+00 0.000000e+00 0.000000e+00 0.000000e+00
2.340768e+00 4.468740e+00 0.000000e+00 2.553566e+00 4.681537e+00 0.000000e+00 0.000000e+00 0.000000e+00 0.000000e+00
5.592731e-01 1.067703e+00 0.000000e+00 6.101161e-01 1.118546e+00 0.000000e+00 0.000000e+00 0.000000e+00 0.000000e+00
2.237092e+00 4.270813e+00 0.000000e+00 2.440464e+00 4.474185e+00 0.000000e+00 0.000000e+00 0.000000e+00 0.000000e+00
5.592731e-01 1.067703e+00 0.000000e+00 6.101161e-01 1.118546e+00 0.000000e+00 0.000000e+00 0.000000e+00 0.000000e+00
1.118546e+00 2.135406e+00 0.000000e+00 1.220232e+00 2.237092e+00 0.000000e+00 0.000000e+00 0.000000e+00 0.000000e+00
5.592731e-01 1.067703e+00 0.000000e+00 6.101161e-01 1.118546e+00 0.000000e+00 0.000000e+00 0.000000e+00 0.000000e+00
2.237092e+00 4.270813e+00 0.000000e+00 2.440464e+00 4.474185e+00 0.000000e+00 0.000000e+00 0.000000e+00 0.000000e+00
5.592731e-01 1.067703e+00 0.000000e+00 6.101161e-01 1.118546e+00 0.000000e+00 0.000000e+00 0.000000e+00 0.000000e+00
1.118546e+00 2.135406e+00 0.000000e+00 1.220232e+00 2.237092e+00 0.000000e+00 0.000000e+00 0.000000e+00 0.000000e+00
2.934825e+00 5.602849e+00 0.000000e+00 3.201628e+00 5.869651e+00 0.000000e+00 0.000000e+00 0.000000e+00 0.000000e+00
2.830981e+00 5.404599e+00 0.000000e+00 3.088342e+00 5.661961e+00 0.000000e+00 0.000000e+00 0.000000e+00 0.000000e+00
1.153161e+00 2.201489e+00 0.000000e+00 1.257994e+00 2.306322e+00 0.000000e+00 0.000000e+00 0.000000e+00 0.000000e+00
2.306322e+00 4.402979e+00 0.000000e+00 2.515988e+00 4.612645e+00 0.000000e+00 0.000000e+00 0.000000e+00 0.000000e+00
4.225940e+00 8.067703e+00 0.000000e+00 4.610116e+00 8.451880e+00 0.000000e+00 0.000000e+00 0.000000e+00 0.000000e+00
4.070426e+00 7.770813e+00 0.000000e+00 4.440464e+00 8.140851e+00 0.000000e+00 0.000000e+00 0.000000e+00 0.000000e+00
6.059273e+00 1.156770e+01 0.000000e+00 6.610116e+00 1.211855e+01 0.000000e+00 0.000000e+00 0.000000e+00 0.000000e+00
4.785213e+00 9.135406e+00 0.000000e+00 5.220232e+00 9.570426e+00 0.000000e+00 0.000000e+00 0.000000e+00 0.000000e+00
6.773254e+00 1.293076e+01 0.000000e+00 7.389005e+00 1.354651e+01 0.000000e+00 0.000000e+00 0.000000e+00 0.000000e+00
4.784407e+00 9.133868e+00 0.000000e+00 5.219353e+00 9.568814e+00 0.000000e+00 0.000000e+00 0.000000e+00 0.000000e+00
7.081866e+00 1.351993e+01 0.000000e+00 7.725672e+00 1.416373e+01 0.000000e+00 0.000000e+00 0.000000e+00 0.000000e+00
6.213176e+00 1.186152e+01 0.000000e+00 6.778010e+00 1.242635e+01 0.000000e+00 0.000000e+00 0.000000e+00 0.000000e+00
5.547081e+00 1.058988e+01 0.000000e+00 6.051362e+00 1.109416e+01 0.000000e+00 0.000000e+00 0.000000e+00 0.000000e+00
4.578366e+00 8.740518e+00 0.000000e+00 4.994581e+00 9.156733e+00 0.000000e+00 0.000000e+00 0.000000e+00 0.000000e+00
6.654764e+00 1.270455e+01 0.000000e+00 7.259742e+00 1.330953e+01 0.000000e+00 0.000000e+00 0.000000e+00 0.000000e+00
5.593404e+00 1.067832e+01 0.000000e+00 6.101895e+00 1.118681e+01 0.000000e+00 0.000000e+00 0.000000e+00 0.000000e+00
7.385968e+00 1.410048e+01 0.000000e+00 8.057420e+00 1.477194e+01 0.000000e+00 0.000000e+00 0.000000e+00 0.000000e+00
7.503184e+00 1.432426e+01 0.000000e+00 8.185292e+00 1.500637e+01 0.000000e+00 0.000000e+00 0.000000e+00 0.000000e+00
6.278286e+00 1.198582e+01 0.000000e+00 6.849039e+00 1.255657e+01 0.000000e+00 0.000000e+00 0.000000e+00 0.000000e+00
7.055813e+00 1.347019e+01 0.000000e+00 7.697250e+00 1.411163e+01 0.000000e+00 0.000000e+00 0.000000e+00 0.000000e+00
4.820334e+00 9.202456e+00 0.000000e+00 5.258546e+00 9.640668e+00 0.000000e+00 0.000000e+00 0.000000e+00 0.000000e+00
3.747774e+00 7.154840e+00 0.000000e+00 4.088480e+00 7.495547e+00 0.000000e+00 0.000000e+00 0.000000e+00 0.000000e+00
3.851619e+00 7.353090e+00 0.000000e+00 4.201766e+00 7.703237e+00 0.000000e+00 0.000000e+00 0.000000e+00 0.000000e+00
4.139909e+00 7.903462e+00 0.000000e+00 4.516264e+00 8.279818e+00 0.000000e+00 0.000000e+00 0.000000e+00 0.000000e+00
6.776437e+00 1.293683e+01 0.000000e+00 7.392477e+00 1.355287e+01 0.000000e+00 0.000000e+00 0.000000e+00 0.000000e+00
4.478978e+00 8.550776e+00 0.000000e+00 4.886158e+00 8.957956e+00 0.000000e+00 0.000000e+00 0.000000e+00 0.000000e+00
5.551538e+00 1.059839e+01 0.000000e+00 6.056223e+00 1.110308e+01 0.000000e+00 0.000000e+00 0.000000e+00 0.000000e+00
5.602318e+00 1.069533e+01 0.000000e+00 6.111619e+00 1.120464e+01 0.000000e+00 0.000000e+00 0.000000e+00 0.000000e+00
</DataArray>
<DataArray Name="data_v" type="Float64" NumberOfComponents="3" format="ascii">
7.315741e-01 1.463148e+00 0.000000e+00
7.596297e-01 1.519259e+00 0.000000e+00
8.982407e-01 1.796481e+00 0.000000e+00
7.964815e-01 1.592963e+00 0.000000e+00
9.537963e-01 1.907593e+00 0.000000e+00
8.151852e-01 1.630370e+00 0.000000e+00
9.537963e-01 1.907593e+00 0.000000e+00
9.075926e-01 1.815185e+00 0.000000e+00
9.537963e-01 1.907593e+00 0.000000e+00
8.151852e-01 1.630370e+00 0.000000e+00
9.537963e-01 1.907593e+00 0.000000e+00
9.075926e-01 1.815185e+00 0.000000e+00
9.040406e-01 1.808081e+00 0.000000e+00
7.654295e-01 1.530859e+00 0.000000e+00
7.547735e-01 1.509547e+00 0.000000e+00
8.080812e-01 1.616162e+00 0.000000e+00
9.502443e-01 1.900489e+00 0.000000e+00
8.009772e-01 1.601954e+00 0.000000e+00
9.502443e-01 1.900489e+00 0.000000e+00
9.004886e-01 1.800977e+00 0.000000e+00
8.946887e-01 1.789377e+00 0.000000e+00
7.454216e-01 1.490843e+00 0.000000e+00
7.280221e-01 1.456044e+00 0.000000e+00
7.893775e-01 1.578755e+00 0.000000e+00
6.327448e-01 1.265490e+00 0.000000e+00
4.439814e-01 8.879628e-01 0.000000e+00
6.153452e-01 1.230690e+00 0.000000e+00
5.640238e-01 1.128048e+00 0.000000e+00
5.539898e-01 1.107980e+00 0.000000e+00
3.826260e-01 7.652519e-01 0.000000e+00
3.873232e-01 7.746463e-01 0.000000e+00
4.413130e-01 8.826260e-01 0.000000e+00
2.762120e-01 5.524241e-01 0.000000e+00
2.715149e-01 5.430297e-01 0.000000e+00
1.095454e-01 2.190908e-01 0.000000e+00
2.190908e-01 4.381815e-01 0.000000e+00
5.398983e-02 1.079797e-01 0.000000e+00
2.159593e-01 4.319186e-01 0.000000e+00
5.398983e-02 1.079797e-01 0.000000e+00
1.079797e-01 2.159593e-01 0.000000e+00
1.063986e-01 2.127971e-01 0.000000e+00
2.589276e-01 5.178552e-01 0.000000e+00
2.730652e-01 5.461305e-01 0.000000e+00
2.127971e-01 4.255943e-01 0.000000e+00
5.084301e-02 1.016860e-01 0.000000e+00
2.033720e-01 4.067441e-01 0.000000e+00
5.084301e-02 1.016860e-01 0.000000e+00
1.016860e-01 2.033720e-01 0.000000e+00
5.084301e-02 1.016860e-01 0.000000e+00
2.033720e-01 4.067441e-01 0.000000e+00
5.084301e-02 1.016860e-01 0.000000e+00
1.016860e-01 2.033720e-01 0.000000e+00
2.668023e-01 5.336046e-01 0.000000e+00
2.573619e-01 5.147237e-01 0.000000e+00
1.048328e-01 2.096657e-01 0.000000e+00
2.096657e-01 4.193313e-01 0.000000e+00
3.841763e-01 7.683527e-01 0.000000e+00
3.700387e-01 7.400774e-01 0.000000e+00
5.508430e-01 1.101686e+00 0.000000e+00
4.350193e-01 8.700387e-01 0.000000e+00
6.157504e-01 1.231501e+00 0.000000e+00
4.349461e-01 8.698922e-01 0.000000e+00
6.438060e-01 1.287612e+00 0.000000e+00
5.648342e-01 1.129668e+00 0.000000e+00
5.042801e-01 1.008560e+00 0.000000e+00
4.162151e-01 8.324302e-01 0.000000e+00
6.049785e-01 1.209957e+00 0.000000e+00
5.084912e-01 1.016982e+00 0.000000e+00
6.714516e-01 1.342903e+00 0.000000e+00
6.821077e-01 1.364215e+00 0.000000e+00
5.707533e-01 1.141507e+00 0.000000e+00
6.414375e-01 1.282875e+00 0.000000e+00
4.382122e-01 8.764243e-01 0.000000e+00
3.407067e-01 6.814134e-01 0.000000e+00
3.501472e-01 7.002943e-01 0.000000e+00
3.763553e-01 7.527106e-01 0.000000e+00
6.160397e-01 1.232079e+00 0.000000e+00
4.071798e-01 8.143597e-01 0.000000e+00
5.046853e-01 1.009371e+00 0.000000e+00
5.093016e-01 1.018603e+00 0.000000e+00
</DataArray>
<DataArray Name="mesh_vars/Elements_Color" type="Float64" NumberOfComponents="1" format="ascii">
4.000000e+00
4.000000e+00
4.000000e+00
4.000000e+00
3.000000e+00
3.000000e+00
3.000000e+00
3.000000e+00
0.000000e+00
0.000000e+00
0.000000e+00
0.000000e+00
2.000000e+00
2.000000e+00
2.000000e+00
2.000000e+00
1.000000e+00
1.000000e+00
1.000000e+00
1.000000e+00
4.000000e+00
4.000000e+00
4.000000e+00
4.000000e+00
0.000000e+00
0.000000e+00
0.000000e+00
0.000000e+00
1.000000e+00
1.000000e+00
1.000000e+00
1.000000e+00
5.000000e+00
5.000000e+00
5.000000e+00
5.000000e+00
4.000000e+00
4.000000e+00
4.000000e+00
4.000000e+00
4.000000e+00
4.000000e+00
4.000000e+00
4.000000e+00
5.000000e+00
5.000000e+00
5.000000e+00
5.000000e+00
0.000000e+00
0.000000e+00
0.000000e+00
0.000000e+00
2.000000e+00
2.000000e+00
2.000000e+00
2.000000e+00
3.000000e+00
3.000000e+00
3.000000e+00
3.000000e+00
1.000000e+00
1.000000e+00
1.000000e+00
1.000000e+00
3.000000e+00
3.000000e+00
3.000000e+00
3.000000e+00
5.000000e+00
5.000000e+00
5.000000e+00
5.000000e+00
6.000000e+00
6.000000e+00
6.000000e+00
6.000000e+00
7.000000e+00
7.000000e+00
7.000000e+00
7.000000e+00
</DataArray>
<DataArray Name="mesh_vars/Elements_Id" type="Float64" NumberOfComponents="1" format="ascii">
1.100000e+01
1.100000e+01
1.100000e+01
1.100000e+01
1.400000e+01
1.400000e+01
1.400000e+01
1.400000e+01
7.000000e+00
7.000000e+00
7.000000e+00
7.000000e+00
5.000000e+00
5.000000e+00
5.000000e+00
5.000000e+00
1.200000e+01
1.200000e+01
1.200000e+01
1.200000e+01
1.500000e+01
1.500000e+01
1.500000e+01
1.500000e+01
0.000000e+00
0.000000e+00
0.000000e+00
0.000000e+00
1.000000e+00
1.000000e+00
1.000000e+00
1.000000e+00
1.800000e+01
1.800000e+01
1.800000e+01
1.800000e+01
1.700000e+01
1.700000e+01
1.700000e+01
1.700000e+01
9.000000e+00
9.000000e+00
9.000000e+00
9.000000e+00
1.000000e+01
1.000000e+01
1.000000e+01
1.000000e+01
3.000000e+00
3.000000e+00
3.000000e+00
3.000000e+00
2.000000e+00
2.000000e+00
2.000000e+00
2.000000e+00
6.000000e+00
6.000000e+00
6.000000e+00
6.000000e+00
4.000000e+00
4.000000e+00
4.000000e+00
4.000000e+00
8.000000e+00
8.000000e+00
8.000000e+00
8.000000e+00
1.900000e+01
1.900000e+01
1.900000e+01
1.900000e+01
1.300000e+01
1.300000e+01
1.300000e+01
1.300000e+01
1.600000e+01
1.600000e+01
1.600000e+01
1.600000e+01
</DataArray>
<DataArray Name="mesh_vars/Elements_Owner" type="Float64" NumberOfComponents="1" format="ascii">
0.000000e+00
0.000000e+00
0.000000e+00
0.000000e+00
0.000000e+00
0.000000e+00
0.000000e+00
0.000000e+00
0.000000e+00
0.000000e+00
0.000000e+00
0.000000e+00
0.000000e+00
0.000000e+00
0.000000e+00
0.000000e+00
0.000000e+00
0.000000e+00
0.000000e+00
0.000000e+00
0.000000e+00
0.000000e+00
0.000000e+00
0.000000e+00
0.000000e+00
0.000000e+00
0.000000e+00
0.000000e+00
0.000000e+00
0.000000e+00
0.000000e+00
0.000000e+00
0.000000e+00
0.000000e+00
0.000000e+00
0.000000e+00
0.000000e+00
0.000000e+00
0.000000e+00
0.000000e+00
0.000000e+00
0.000000e+00
0.000000e+00
0.000000e+00
0.000000e+00
0.000000e+00
0.000000e+00
0.000000e+00
0.000000e+00
0.000000e+00
0.000000e+00
0.000000e+00
0.000000e+00
0.000000e+00
0.000000e+00
0.000000e+00
0.000000e+00
0.000000e+00
0.000000e+00
0.000000e+00
0.000000e+00
0.000000e+00
0.000000e+00
0.000000e+00
0.000000e+00
0.000000e+00
0.000000e+00
0.000000e+00
0.000000e+00
0.000000e+00
0.000000e+00
0.000000e+00
0.000000e+00
0.000000e+00
0.000000e+00
0.000000e+00
0.000000e+00
0.000000e+00
0.000000e+00
0.000000e+00
</DataArray>
<DataArray Name="mesh_vars/Elements_Tag" type="Float64" NumberOfComponents="1" format="ascii">
6.000000e+00
6.000000e+00
6.000000e+00
6.000000e+00
6.000000e+00
6.000000e+00
6.000000e+00
6.000000e+00
6.000000e+00
6.000000e+00
6.000000e+00
6.000000e+00
6.000000e+00
6.000000e+00
6.000000e+00
6.000000e+00
6.000000e+00
6.000000e+00
6.000000e+00
6.000000e+00
6.000000e+00
6.000000e+00
6.000000e+00
6.000000e+00
6.000000e+00
6.000000e+00
6.000000e+00
6.000000e+00
6.000000e+00
6.000000e+00
6.000000e+00
6.000000e+00
6.000000e+00
6.000000e+00
6.000000e+00
6.000000e+00
6.000000e+00
6.000000e+00
6.000000e+00
6.000000e+00
6.000000e+00
6.000000e+00
6.000000e+00
6.000000e+00
6.000000e+00
6.000000e+00
6.000000e+00
6.000000e+00
6.000000e+00
6.000000e+00
6.000000e+00
6.000000e+00
6.000000e+00
6.000000e+00
6.000000e+00
6.000000e+00
6.000000e+00
6.000000e+00
6.000000e+00
6.000000e+00
6.000000e+00
6.000000e+00
6.000000e+00
6.000000e+00
6.000000e+00
6.000000e+00
6.000000e+00
6.000000e+00
6.000000e+00
6.000000e+00
6.000000e+00
6.000000e+00
6.000000e+00
6.000000e+00
6.000000e+00
6.000000e+00
6.000000e+00
6.000000e+00
6.000000e+00
6.000000e+00
</DataArray>
</CellData>
</Piece>
</UnstructuredGrid>
</VTKFile>
