<?xml version="1.0"?>
<VTKFile type="UnstructuredGrid" version="0.1">
<UnstructuredGrid>
<Piece NumberOfPoints="1281" NumberOfCells="400">
<Points>
<DataArray NumberOfComponents="3" type="Float64" format="ascii">
 0.000000e+00 0.000000e+00 0.000000e+00
 2.500000e-02 0.000000e+00 0.000000e+00
 5.000000e-02 0.000000e+00 0.000000e+00
 7.500000e-02 0.000000e+00 0.000000e+00
 1.000000e-01 0.000000e+00 0.000000e+00
 1.250000e-01 0.000000e+00 0.000000e+00
 1.500000e-01 0.000000e+00 0.000000e+00
 1.750000e-01 0.000000e+00 0.000000e+00
 2.000000e-01 0.000000e+00 0.000000e+00
 2.250000e-01 0.000000e+00 0.000000e+00
 2.500000e-01 0.000000e+00 0.000000e+00
 2.750000e-01 0.000000e+00 0.000000e+00
 3.000000e-01 0.000000e+00 0.000000e+00
 3.250000e-01 0.000000e+00 0.000000e+00
 3.500000e-01 0.000000e+00 0.000000e+00
 3.750000e-01 0.000000e+00 0.000000e+00
 4.000000e-01 0.000000e+00 0.000000e+00
 4.250000e-01 0.000000e+00 0.000000e+00
 4.500000e-01 0.000000e+00 0.000000e+00
 4.750000e-01 0.000000e+00 0.000000e+00
 5.000000e-01 0.000000e+00 0.000000e+00
 5.250000e-01 0.000000e+00 0.000000e+00
 5.500000e-01 0.000000e+00 0.000000e+00
 5.750000e-01 0.000000e+00 0.000000e+00
 6.000000e-01 0.000000e+00 0.000000e+00
 6.250000e-01 0.000000e+00 0.000000e+00
 6.500000e-01 0.000000e+00 0.000000e+00
 6.750000e-01 0.000000e+00 0.000000e+00
 7.000000e-01 0.000000e+00 0.000000e+00
 7.250000e-01 0.000000e+00 0.000000e+00
 7.500000e-01 0.000000e+00 0.000000e+00
 7.750000e-01 0.000000e+00 0.000000e+00
 8.000000e-01 0.000000e+00 0.000000e+00
 8.250000e-01 0.000000e+00 0.000000e+00
 8.500000e-01 0.000000e+00 0.000000e+00
 8.750000e-01 0.000000e+00 0.000000e+00
 9.000000e-01 0.000000e+00 0.000000e+00
 9.250000e-01 0.000000e+00 0.000000e+00
 9.500000e-01 0.000000e+00 0.000000e+00
 9.750000e-01 0.000000e+00 0.000000e+00
 1.000000e+00 0.000000e+00 0.000000e+00
 0.000000e+00 2.500000e-02 0.000000e+00
 5.000000e-02 2.500000e-02 0.000000e+00
 1.000000e-01 2.500000e-02 0.000000e+00
 1.500000e-01 2.500000e-02 0.000000e+00
 2.000000e-01 2.500000e-02 0.000000e+00
 2.500000e-01 2.500000e-02 0.000000e+00
 3.000000e-01 2.500000e-02 0.000000e+00
 3.500000e-01 2.500000e-02 0.000000e+00
 4.000000e-01 2.500000e-02 0.000000e+00
 4.500000e-01 2.500000e-02 0.000000e+00
 5.000000e-01 2.500000e-02 0.000000e+00
 5.500000e-01 2.500000e-02 0.000000e+00
 6.000000e-01 2.500000e-02 0.000000e+00
 6.500000e-01 2.500000e-02 0.000000e+00
 7.000000e-01 2.500000e-02 0.000000e+00
 7.500000e-01 2.500000e-02 0.000000e+00
 8.000000e-01 2.500000e-02 0.000000e+00
 8.500000e-01 2.500000e-02 0.000000e+00
 9.000000e-01 2.500000e-02 0.000000e+00
 9.500000e-01 2.500000e-02 0.000000e+00
 1.000000e+00 2.500000e-02 0.000000e+00
 0.000000e+00 5.000000e-02 0.000000e+00
 2.500000e-02 5.000000e-02 0.000000e+00
 5.000000e-02 5.000000e-02 0.000000e+00
 7.500000e-02 5.000000e-02 0.000000e+00
 1.000000e-01 5.000000e-02 0.000000e+00
 1.250000e-01 5.000000e-02 0.000000e+00
 1.500000e-01 5.000000e-02 0.000000e+00
 1.750000e-01 5.000000e-02 0.000000e+00
 2.000000e-01 5.000000e-02 0.000000e+00
 2.250000e-01 5.000000e-02 0.000000e+00
 2.500000e-01 5.000000e-02 0.000000e+00
 2.750000e-01 5.000000e-02 0.000000e+00
 3.000000e-01 5.000000e-02 0.000000e+00
 3.250000e-01 5.000000e-02 0.000000e+00
 3.500000e-01 5.000000e-02 0.000000e+00
 3.750000e-01 5.000000e-02 0.000000e+00
 4.000000e-01 5.000000e-02 0.000000e+00
 4.250000e-01 5.000000e-02 0.000000e+00
 4.500000e-01 5.000000e-02 0.000000e+00
 4.750000e-01 5.000000e-02 0.000000e+00
 5.000000e-01 5.000000e-02 0.000000e+00
 5.250000e-01 5.000000e-02 0.000000e+00
 5.500000e-01 5.000000e-02 0.000000e+00
 5.750000e-01 5.000000e-02 0.000000e+00
 6.000000e-01 5.000000e-02 0.000000e+00
 6.250000e-01 5.000000e-02 0.000000e+00
 6.500000e-01 5.000000e-02 0.000000e+00
 6.750000e-01 5.000000e-02 0.000000e+00
 7.000000e-01 5.000000e-02 0.000000e+00
 7.250000e-01 5.000000e-02 0.000000e+00
 7.500000e-01 5.000000e-02 0.000000e+00
 7.750000e-01 5.000000e-02 0.000000e+00
 8.000000e-01 5.000000e-02 0.000000e+00
 8.250000e-01 5.000000e-02 0.000000e+00
 8.500000e-01 5.000000e-02 0.000000e+00
 8.750000e-01 5.000000e-02 0.000000e+00
 9.000000e-01 5.000000e-02 0.000000e+00
 9.250000e-01 5.000000e-02 0.000000e+00
 9.500000e-01 5.000000e-02 0.000000e+00
 9.750000e-01 5.000000e-02 0.000000e+00
 1.000000e+00 5.000000e-02 0.000000e+00
 0.000000e+00 7.500000e-02 0.000000e+00
 5.000000e-02 7.500000e-02 0.000000e+00
 1.000000e-01 7.500000e-02 0.000000e+00
 1.500000e-01 7.500000e-02 0.000000e+00
 2.000000e-01 7.500000e-02 0.000000e+00
 2.500000e-01 7.500000e-02 0.000000e+00
 3.000000e-01 7.500000e-02 0.000000e+00
 3.500000e-01 7.500000e-02 0.000000e+00
 4.000000e-01 7.500000e-02 0.000000e+00
 4.500000e-01 7.500000e-02 0.000000e+00
 5.000000e-01 7.500000e-02 0.000000e+00
 5.500000e-01 7.500000e-02 0.000000e+00
 6.000000e-01 7.500000e-02 0.000000e+00
 6.500000e-01 7.500000e-02 0.000000e+00
 7.000000e-01 7.500000e-02 0.000000e+00
 7.500000e-01 7.500000e-02 0.000000e+00
 8.000000e-01 7.500000e-02 0.000000e+00
 8.500000e-01 7.500000e-02 0.000000e+00
 9.000000e-01 7.500000e-02 0.000000e+00
 9.500000e-01 7.500000e-02 0.000000e+00
 1.000000e+00 7.500000e-02 0.000000e+00
 0.000000e+00 1.000000e-01 0.000000e+00
 2.500000e-02 1.000000e-01 0.000000e+00
 5.000000e-02 1.000000e-01 0.000000e+00
 7.500000e-02 1.000000e-01 0.000000e+00
 1.000000e-01 1.000000e-01 0.000000e+00
 1.250000e-01 1.000000e-01 0.000000e+00
 1.500000e-01 1.000000e-01 0.000000e+00
 1.750000e-01 1.000000e-01 0.000000e+00
 2.000000e-01 1.000000e-01 0.000000e+00
 2.250000e-01 1.000000e-01 0.000000e+00
 2.500000e-01 1.000000e-01 0.000000e+00
 2.750000e-01 1.000000e-01 0.000000e+00
 3.000000e-01 1.000000e-01 0.000000e+00
 3.250000e-01 1.000000e-01 0.000000e+00
 3.500000e-01 1.000000e-01 0.000000e+00
 3.750000e-01 1.000000e-01 0.000000e+00
 4.000000e-01 1.000000e-01 0.000000e+00
 4.250000e-01 1.000000e-01 0.000000e+00
 4.500000e-01 1.000000e-01 0.000000e+00
 4.750000e-01 1.000000e-01 0.000000e+00
 5.000000e-01 1.000000e-01 0.000000e+00
 5.250000e-01 1.000000e-01 0.000000e+00
 5.500000e-01 1.000000e-01 0.000000e+00
 5.750000e-01 1.000000e-01 0.000000e+00
 6.000000e-01 1.000000e-01 0.000000e+00
 6.250000e-01 1.000000e-01 0.000000e+00
 6.500000e-01 1.000000e-01 0.000000e+00
 6.750000e-01 1.000000e-01 0.000000e+00
 7.000000e-01 1.000000e-01 0.000000e+00
 7.250000e-01 1.000000e-01 0.000000e+00
 7.500000e-01 1.000000e-01 0.000000e+00
 7.750000e-01 1.000000e-01 0.000000e+00
 8.000000e-01 1.000000e-01 0.000000e+00
 8.250000e-01 1.000000e-01 0.000000e+00
 8.500000e-01 1.000000e-01 0.000000e+00
 8.750000e-01 1.000000e-01 0.000000e+00
 9.000000e-01 1.000000e-01 0.000000e+00
 9.250000e-01 1.000000e-01 0.000000e+00
 9.500000e-01 1.000000e-01 0.000000e+00
 9.750000e-01 1.000000e-01 0.000000e+00
 1.000000e+00 1.000000e-01 0.000000e+00
 0.000000e+00 1.250000e-01 0.000000e+00
 5.000000e-02 1.250000e-01 0.000000e+00
 1.000000e-01 1.250000e-01 0.000000e+00
 1.500000e-01 1.250000e-01 0.000000e+00
 2.000000e-01 1.250000e-01 0.000000e+00
 2.500000e-01 1.250000e-01 0.000000e+00
 3.000000e-01 1.250000e-01 0.000000e+00
 3.500000e-01 1.250000e-01 0.000000e+00
 4.000000e-01 1.250000e-01 0.000000e+00
 4.500000e-01 1.250000e-01 0.000000e+00
 5.000000e-01 1.250000e-01 0.000000e+00
 5.500000e-01 1.250000e-01 0.000000e+00
 6.000000e-01 1.250000e-01 0.000000e+00
 6.500000e-01 1.250000e-01 0.000000e+00
 7.000000e-01 1.250000e-01 0.000000e+00
 7.500000e-01 1.250000e-01 0.000000e+00
 8.000000e-01 1.250000e-01 0.000000e+00
 8.500000e-01 1.250000e-01 0.000000e+00
 9.000000e-01 1.250000e-01 0.000000e+00
 9.500000e-01 1.250000e-01 0.000000e+00
 1.000000e+00 1.250000e-01 0.000000e+00
 0.000000e+00 1.500000e-01 0.000000e+00
 2.500000e-02 1.500000e-01 0.000000e+00
 5.000000e-02 1.500000e-01 0.000000e+00
 7.500000e-02 1.500000e-01 0.000000e+00
 1.000000e-01 1.500000e-01 0.000000e+00
 1.250000e-01 1.500000e-01 0.000000e+00
 1.500000e-01 1.500000e-01 0.000000e+00
 1.750000e-01 1.500000e-01 0.000000e+00
 2.000000e-01 1.500000e-01 0.000000e+00
 2.250000e-01 1.500000e-01 0.000000e+00
 2.500000e-01 1.500000e-01 0.000000e+00
 2.750000e-01 1.500000e-01 0.000000e+00
 3.000000e-01 1.500000e-01 0.000000e+00
 3.250000e-01 1.500000e-01 0.000000e+00
 3.500000e-01 1.500000e-01 0.000000e+00
 3.750000e-01 1.500000e-01 0.000000e+00
 4.000000e-01 1.500000e-01 0.000000e+00
 4.250000e-01 1.500000e-01 0.000000e+00
 4.500000e-01 1.500000e-01 0.000000e+00
 4.750000e-01 1.500000e-01 0.000000e+00
 5.000000e-01 1.500000e-01 0.000000e+00
 5.250000e-01 1.500000e-01 0.000000e+00
 5.500000e-01 1.500000e-01 0.000000e+00
 5.750000e-01 1.500000e-01 0.000000e+00
 6.000000e-01 1.500000e-01 0.000000e+00
 6.250000e-01 1.500000e-01 0.000000e+00
 6.500000e-01 1.500000e-01 0.000000e+00
 6.750000e-01 1.500000e-01 0.000000e+00
 7.000000e-01 1.500000e-01 0.000000e+00
 7.250000e-01 1.500000e-01 0.000000e+00
 7.500000e-01 1.500000e-01 0.000000e+00
 7.750000e-01 1.500000e-01 0.000000e+00
 8.000000e-01 1.500000e-01 0.000000e+00
 8.250000e-01 1.500000e-01 0.000000e+00
 8.500000e-01 1.500000e-01 0.000000e+00
 8.750000e-01 1.500000e-01 0.000000e+00
 9.000000e-01 1.500000e-01 0.000000e+00
 9.250000e-01 1.500000e-01 0.000000e+00
 9.500000e-01 1.500000e-01 0.000000e+00
 9.750000e-01 1.500000e-01 0.000000e+00
 1.000000e+00 1.500000e-01 0.000000e+00
 0.000000e+00 1.750000e-01 0.000000e+00
 5.000000e-02 1.750000e-01 0.000000e+00
 1.000000e-01 1.750000e-01 0.000000e+00
 1.500000e-01 1.750000e-01 0.000000e+00
 2.000000e-01 1.750000e-01 0.000000e+00
 2.500000e-01 1.750000e-01 0.000000e+00
 3.000000e-01 1.750000e-01 0.000000e+00
 3.500000e-01 1.750000e-01 0.000000e+00
 4.000000e-01 1.750000e-01 0.000000e+00
 4.500000e-01 1.750000e-01 0.000000e+00
 5.000000e-01 1.750000e-01 0.000000e+00
 5.500000e-01 1.750000e-01 0.000000e+00
 6.000000e-01 1.750000e-01 0.000000e+00
 6.500000e-01 1.750000e-01 0.000000e+00
 7.000000e-01 1.750000e-01 0.000000e+00
 7.500000e-01 1.750000e-01 0.000000e+00
 8.000000e-01 1.750000e-01 0.000000e+00
[...]
<PointData Vectors="data">
<DataArray Name="data" type="Float64" NumberOfComponents="3" format="ascii">
 0.000000e+00 0.000000e+00 0.000000e+00
 -7.014889e+02 0.000000e+00 0.000000e+00
 -1.344553e+03 0.000000e+00 0.000000e+00
 -1.905482e+03 0.000000e+00 0.000000e+00
 -2.349418e+03 0.000000e+00 0.000000e+00
 -2.695769e+03 0.000000e+00 0.000000e+00
 -2.946293e+03 0.000000e+00 0.000000e+00
 -3.123759e+03 0.000000e+00 0.000000e+00
 -3.240165e+03 0.000000e+00 0.000000e+00
 -3.310264e+03 0.000000e+00 0.000000e+00
 -3.345565e+03 0.000000e+00 0.000000e+00
 -3.354255e+03 0.000000e+00 0.000000e+00
 -3.344793e+03 0.000000e+00 0.000000e+00
 -3.321701e+03 0.000000e+00 0.000000e+00
 -3.290694e+03 0.000000e+00 0.000000e+00
 -3.254101e+03 0.000000e+00 0.000000e+00
 -3.215451e+03 0.000000e+00 0.000000e+00
 -3.175725e+03 0.000000e+00 0.000000e+00
 -3.136854e+03 0.000000e+00 0.000000e+00
 -3.098804e+03 0.000000e+00 0.000000e+00
 -3.062162e+03 0.000000e+00 0.000000e+00
 -3.026164e+03 0.000000e+00 0.000000e+00
 -2.990322e+03 0.000000e+00 0.000000e+00
 -2.953147e+03 0.000000e+00 0.000000e+00
 -2.913079e+03 0.000000e+00 0.000000e+00
 -2.868050e+03 0.000000e+00 0.000000e+00
 -2.815610e+03 0.000000e+00 0.000000e+00
 -2.753115e+03 0.000000e+00 0.000000e+00
 -2.677320e+03 0.000000e+00 0.000000e+00
 -2.585352e+03 0.000000e+00 0.000000e+00
 -2.473726e+03 0.000000e+00 0.000000e+00
 -2.339738e+03 0.000000e+00 0.000000e+00
 -2.180348e+03 0.000000e+00 0.000000e+00
 -1.993947e+03 0.000000e+00 0.000000e+00
 -1.779193e+03 0.000000e+00 0.000000e+00
 -1.536375e+03 0.000000e+00 0.000000e+00
 -1.266750e+03 0.000000e+00 0.000000e+00
 -9.733616e+02 0.000000e+00 0.000000e+00
 -6.603639e+02 0.000000e+00 0.000000e+00
 -3.336249e+02 0.000000e+00 0.000000e+00
 0.000000e+00 0.000000e+00 0.000000e+00
 0.000000e+00 7.064914e+02 0.000000e+00
 -1.319214e+03 6.024534e+02 0.000000e+00
 -2.306645e+03 3.929086e+02 0.000000e+00
 -2.897939e+03 2.141222e+02 0.000000e+00
 -3.194159e+03 9.584164e+01 0.000000e+00
 -3.304617e+03 2.597336e+01 0.000000e+00
 -3.308824e+03 -1.158011e+01 0.000000e+00
 -3.258869e+03 -2.862037e+01 0.000000e+00
 -3.186905e+03 -3.369354e+01 0.000000e+00
 -3.110892e+03 -3.267411e+01 0.000000e+00
 -3.038337e+03 -3.027980e+01 0.000000e+00
 -2.968434e+03 -3.019243e+01 0.000000e+00
 -2.893185e+03 -3.596430e+01 0.000000e+00
 -2.797987e+03 -5.062730e+01 0.000000e+00
 -2.662397e+03 -7.685321e+01 0.000000e+00
 -2.461932e+03 -1.157441e+02 0.000000e+00
 -2.171909e+03 -1.660389e+02 0.000000e+00
 -1.773902e+03 -2.224110e+02 0.000000e+00
 -1.263948e+03 -2.757810e+02 0.000000e+00
 -6.593008e+02 -3.147421e+02 0.000000e+00
 0.000000e+00 -3.286907e+02 0.000000e+00
 0.000000e+00 1.385316e+03 0.000000e+00
 -6.518772e+02 1.329273e+03 0.000000e+00
 -1.248092e+03 1.179052e+03 0.000000e+00
 -1.769752e+03 9.778407e+02 0.000000e+00
 -2.189400e+03 7.678550e+02 0.000000e+00
 -2.520393e+03 5.759856e+02 0.000000e+00
 -2.767574e+03 4.127346e+02 0.000000e+00
 -2.947029e+03 2.792800e+02 0.000000e+00
 -3.070178e+03 1.740647e+02 0.000000e+00
 -3.148934e+03 9.250566e+01 0.000000e+00
 -3.193225e+03 3.090563e+01 0.000000e+00
 -3.211148e+03 -1.459296e+01 0.000000e+00
 -3.210025e+03 -4.714999e+01 0.000000e+00
 -3.194918e+03 -6.951714e+01 0.000000e+00
 -3.170818e+03 -8.394095e+01 0.000000e+00
 -3.140650e+03 -9.223458e+01 0.000000e+00
 -3.107568e+03 -9.610780e+01 0.000000e+00
 -3.072985e+03 -9.689548e+01 0.000000e+00
 -3.038598e+03 -9.585587e+01 0.000000e+00
 -3.004743e+03 -9.395079e+01 0.000000e+00
 -2.971981e+03 -9.227571e+01 0.000000e+00
 -2.939742e+03 -9.166273e+01 0.000000e+00
 -2.907541e+03 -9.306699e+01 0.000000e+00
 -2.874070e+03 -9.721192e+01 0.000000e+00
 -2.837936e+03 -1.050264e+02 0.000000e+00
 -2.797081e+03 -1.171958e+02 0.000000e+00
 -2.749166e+03 -1.345085e+02 0.000000e+00
 -2.691562e+03 -1.575208e+02 0.000000e+00
 -2.621214e+03 -1.867267e+02 0.000000e+00
 -2.535073e+03 -2.223667e+02 0.000000e+00
 -2.429629e+03 -2.642824e+02 0.000000e+00
 -2.302031e+03 -3.121152e+02 0.000000e+00
 -2.149163e+03 -3.647082e+02 0.000000e+00
 -1.969108e+03 -4.207648e+02 0.000000e+00
 -1.760146e+03 -4.779176e+02 0.000000e+00
 -1.522490e+03 -5.337913e+02 0.000000e+00
 -1.257153e+03 -5.853725e+02 0.000000e+00
 -9.671948e+02 -6.297356e+02 0.000000e+00
 -6.569421e+02 -6.640160e+02 0.000000e+00
 -3.323028e+02 -6.853185e+02 0.000000e+00
 0.000000e+00 -6.926061e+02 0.000000e+00
 0.000000e+00 2.022977e+03 0.000000e+00
 -1.146684e+03 1.723504e+03 0.000000e+00
 -2.023493e+03 1.139595e+03 0.000000e+00
 -2.581548e+03 6.359647e+02 0.000000e+00
 -2.890122e+03 2.939397e+02 0.000000e+00
 -3.028260e+03 8.555003e+01 0.000000e+00
 -3.061464e+03 -2.954593e+01 0.000000e+00
 -3.037066e+03 -8.410205e+01 0.000000e+00
 -2.986339e+03 -1.021999e+02 0.000000e+00
 -2.927877e+03 -1.015225e+02 0.000000e+00
 -2.870369e+03 -9.565765e+01 0.000000e+00
 -2.814469e+03 -9.601359e+01 0.000000e+00
 -2.753719e+03 -1.128287e+02 0.000000e+00
 -2.674990e+03 -1.557373e+02 0.000000e+00
 -2.558875e+03 -2.327212e+02 0.000000e+00
 -2.380980e+03 -3.481729e+02 0.000000e+00
 -2.115192e+03 -4.987523e+02 0.000000e+00
 -1.739953e+03 -6.697626e+02 0.000000e+00
 -1.247575e+03 -8.331654e+02 0.000000e+00
 -6.537217e+02 -9.529929e+02 0.000000e+00
 0.000000e+00 -9.971528e+02 0.000000e+00
 0.000000e+00 2.594628e+03 0.000000e+00
 -5.342827e+02 2.488854e+03 0.000000e+00
 -1.028054e+03 2.213733e+03 0.000000e+00
 -1.465334e+03 1.853535e+03 0.000000e+00
 -1.830578e+03 1.479449e+03 0.000000e+00
 -2.127652e+03 1.136968e+03 0.000000e+00
 -2.362299e+03 8.419668e+02 0.000000e+00
 -2.541633e+03 5.975130e+02 0.000000e+00
 -2.673107e+03 4.009305e+02 0.000000e+00
 -2.765324e+03 2.458496e+02 0.000000e+00
 -2.825303e+03 1.269417e+02 0.000000e+00
 -2.860213e+03 3.757629e+01 0.000000e+00
 -2.875706e+03 -2.713642e+01 0.000000e+00
 -2.876892e+03 -7.226451e+01 0.000000e+00
 -2.867838e+03 -1.017325e+02 0.000000e+00
 -2.851878e+03 -1.192868e+02 0.000000e+00
 -2.831725e+03 -1.278547e+02 0.000000e+00
 -2.809227e+03 -1.301109e+02 0.000000e+00
 -2.785926e+03 -1.284196e+02 0.000000e+00
 -2.762550e+03 -1.248851e+02 0.000000e+00
 -2.739669e+03 -1.214566e+02 0.000000e+00
 -2.717073e+03 -1.198612e+02 0.000000e+00
 -2.694469e+03 -1.219285e+02 0.000000e+00
 -2.670796e+03 -1.292604e+02 0.000000e+00
 -2.644884e+03 -1.435770e+02 0.000000e+00
 -2.614903e+03 -1.663731e+02 0.000000e+00
 -2.578841e+03 -1.992199e+02 0.000000e+00
 -2.534098e+03 -2.433927e+02 0.000000e+00
 -2.477748e+03 -2.999310e+02 0.000000e+00
 -2.406697e+03 -3.695437e+02 0.000000e+00
 -2.317388e+03 -4.521203e+02 0.000000e+00
 -2.206601e+03 -5.471681e+02 0.000000e+00
 -2.070638e+03 -6.525422e+02 0.000000e+00
 -1.907149e+03 -7.657643e+02 0.000000e+00
 -1.713542e+03 -8.822274e+02 0.000000e+00
 -1.489587e+03 -9.971226e+02 0.000000e+00
 -1.235336e+03 -1.103858e+03 0.000000e+00
 -9.540365e+02 -1.196003e+03 0.000000e+00
 -6.497529e+02 -1.267408e+03 0.000000e+00
 -3.292316e+02 -1.312432e+03 0.000000e+00
 0.000000e+00 -1.328186e+03 0.000000e+00
 0.000000e+00 3.106084e+03 0.000000e+00
 -9.066701e+02 2.658744e+03 0.000000e+00
 -1.631027e+03 1.798518e+03 0.000000e+00
 -2.130417e+03 1.043464e+03 0.000000e+00
 -2.437175e+03 5.106208e+02 0.000000e+00
 -2.599282e+03 1.737894e+02 0.000000e+00
 -2.664845e+03 -1.894509e+01 0.000000e+00
 -2.672972e+03 -1.147281e+02 0.000000e+00
 -2.651844e+03 -1.501202e+02 0.000000e+00
 -2.619539e+03 -1.532458e+02 0.000000e+00
 -2.585620e+03 -1.459910e+02 0.000000e+00
 -2.552341e+03 -1.469699e+02 0.000000e+00
 -2.515328e+03 -1.731772e+02 0.000000e+00
 -2.463654e+03 -2.407404e+02 0.000000e+00
 -2.379741e+03 -3.640559e+02 0.000000e+00
 -2.239712e+03 -5.520470e+02 0.000000e+00
 -2.015425e+03 -8.022001e+02 0.000000e+00
 -1.680193e+03 -1.092123e+03 0.000000e+00
 -1.219464e+03 -1.374895e+03 0.000000e+00
 -6.444592e+02 -1.585412e+03 0.000000e+00
 0.000000e+00 -1.663988e+03 0.000000e+00
 0.000000e+00 3.545976e+03 0.000000e+00
 -4.068000e+02 3.406593e+03 0.000000e+00
 -7.895255e+02 3.047582e+03 0.000000e+00
 -1.135268e+03 2.578120e+03 0.000000e+00
 -1.435443e+03 2.088210e+03 0.000000e+00
 -1.688608e+03 1.634278e+03 0.000000e+00
 -1.897076e+03 1.235369e+03 0.000000e+00
 -2.063909e+03 8.987759e+02 0.000000e+00
 -2.193324e+03 6.227793e+02 0.000000e+00
 -2.290515e+03 4.015522e+02 0.000000e+00
 -2.360407e+03 2.288167e+02 0.000000e+00
 -2.408139e+03 9.677951e+01 0.000000e+00
 -2.438016e+03 -7.234432e-01 0.000000e+00
 -2.454313e+03 -7.034023e+01 0.000000e+00
 -2.460468e+03 -1.172187e+02 0.000000e+00
 -2.459455e+03 -1.465053e+02 0.000000e+00
 -2.453618e+03 -1.622770e+02 0.000000e+00
 -2.444874e+03 -1.684471e+02 0.000000e+00
 -2.434693e+03 -1.682796e+02 0.000000e+00
 -2.423964e+03 -1.648432e+02 0.000000e+00
 -2.413324e+03 -1.609404e+02 0.000000e+00
 -2.402825e+03 -1.591819e+02 0.000000e+00
 -2.392370e+03 -1.621613e+02 0.000000e+00
 -2.381193e+03 -1.722908e+02 0.000000e+00
 -2.368467e+03 -1.921212e+02 0.000000e+00
 -2.352589e+03 -2.239696e+02 0.000000e+00
 -2.331885e+03 -2.702456e+02 0.000000e+00
 -2.303949e+03 -3.330464e+02 0.000000e+00
 -2.266220e+03 -4.142323e+02 0.000000e+00
 -2.215488e+03 -5.151744e+02 0.000000e+00
 -2.148177e+03 -6.362022e+02 0.000000e+00
 -2.060717e+03 -7.769758e+02 0.000000e+00
 -1.948857e+03 -9.349795e+02 0.000000e+00
 -1.809508e+03 -1.106893e+03 0.000000e+00
 -1.638769e+03 -1.285963e+03 0.000000e+00
 -1.435728e+03 -1.464819e+03 0.000000e+00
 -1.198967e+03 -1.632936e+03 0.000000e+00
 -9.317128e+02 -1.779686e+03 0.000000e+00
 -6.373302e+02 -1.894258e+03 0.000000e+00
 -3.239031e+02 -1.966891e+03 0.000000e+00
 0.000000e+00 -1.992347e+03 0.000000e+00
 0.000000e+00 3.930469e+03 0.000000e+00
 -6.798042e+02 3.390994e+03 0.000000e+00
 -1.249225e+03 2.351125e+03 0.000000e+00
 -1.670025e+03 1.416628e+03 0.000000e+00
 -1.950746e+03 7.350944e+02 0.000000e+00
 -2.117892e+03 2.896779e+02 0.000000e+00
 -2.203769e+03 2.613099e+01 0.000000e+00
 -2.237950e+03 -1.100103e+02 0.000000e+00
 -2.243715e+03 -1.645936e+02 0.000000e+00
 -2.237179e+03 -1.735696e+02 0.000000e+00
 -2.227757e+03 -1.661785e+02 0.000000e+00
 -2.218767e+03 -1.672969e+02 0.000000e+00
 -2.207716e+03 -2.001465e+02 0.000000e+00
 -2.186095e+03 -2.873911e+02 0.000000e+00
 -2.138767e+03 -4.501455e+02 0.000000e+00
 -2.043316e+03 -7.041110e+02 0.000000e+00
 -1.870484e+03 -1.050607e+03 0.000000e+00
 -1.588119e+03 -1.463649e+03 0.000000e+00
 -1.172505e+03 -1.878102e+03 0.000000e+00
 -6.274273e+02 -2.194224e+03 0.000000e+00
 0.000000e+00 -2.313645e+03 0.000000e+00
 0.000000e+00 4.254081e+03 0.000000e+00
 -2.963502e+02 4.094575e+03 0.000000e+00
 -5.798865e+02 3.685590e+03 0.000000e+00
 -8.417358e+02 3.148963e+03 0.000000e+00
 -1.076233e+03 2.584448e+03 0.000000e+00
 -1.280344e+03 2.054976e+03 0.000000e+00
 -1.454246e+03 1.582782e+03 0.000000e+00
 -1.598474e+03 1.178647e+03 0.000000e+00
 -1.715316e+03 8.418656e+02 0.000000e+00
 -1.807448e+03 5.679441e+02 0.000000e+00
 -1.878126e+03 3.506081e+02 0.000000e+00
 -1.930720e+03 1.822540e+02 0.000000e+00
 -1.968524e+03 5.589386e+01 0.000000e+00
 -1.994582e+03 -3.590899e+01 0.000000e+00
 -2.011589e+03 -9.917232e+01 0.000000e+00
 -2.022005e+03 -1.399331e+02 0.000000e+00
 -2.027897e+03 -1.631623e+02 0.000000e+00
 -2.030878e+03 -1.736892e+02 0.000000e+00
 -2.032259e+03 -1.755409e+02 0.000000e+00
 -2.032957e+03 -1.725837e+02 0.000000e+00
 -2.033668e+03 -1.683323e+02 0.000000e+00
 -2.034558e+03 -1.661532e+02 0.000000e+00
 -2.035714e+03 -1.693353e+02 0.000000e+00
 -2.036587e+03 -1.810289e+02 0.000000e+00
 -2.036636e+03 -2.045317e+02 0.000000e+00
 -2.034544e+03 -2.429646e+02 0.000000e+00
 -2.029082e+03 -2.996137e+02 0.000000e+00
 -2.018035e+03 -3.774503e+02 0.000000e+00
 -1.999241e+03 -4.792703e+02 0.000000e+00
 -1.969595e+03 -6.073083e+02 0.000000e+00
 -1.925852e+03 -7.628537e+02 0.000000e+00
 -1.864091e+03 -9.461947e+02 0.000000e+00
 -1.779839e+03 -1.155061e+03 0.000000e+00
 -1.669171e+03 -1.385731e+03 0.000000e+00
 -1.526993e+03 -1.629934e+03 0.000000e+00
 -1.351318e+03 -1.877851e+03 0.000000e+00
 -1.138799e+03 -2.114490e+03 0.000000e+00
 -8.923201e+02 -2.324163e+03 0.000000e+00
 -6.140420e+02 -2.489753e+03 0.000000e+00
 -3.134409e+02 -2.595588e+03 0.000000e+00
 0.000000e+00 -2.632733e+03 0.000000e+00
 0.000000e+00 4.529548e+03 0.000000e+00
 -4.889483e+02 3.939826e+03 0.000000e+00
 -9.171415e+02 2.790544e+03 0.000000e+00
 -1.252622e+03 1.733724e+03 0.000000e+00
 -1.491508e+03 9.421664e+02 0.000000e+00
 -1.646553e+03 4.109117e+02 0.000000e+00
 -1.738076e+03 8.812834e+01 0.000000e+00
 -1.787110e+03 -8.417799e+01 0.000000e+00
 -1.811610e+03 -1.569835e+02 0.000000e+00
 -1.824969e+03 -1.724913e+02 0.000000e+00
 -1.835640e+03 -1.653254e+02 0.000000e+00
 -1.847288e+03 -1.658031e+02 0.000000e+00
 -1.858762e+03 -2.025024e+02 0.000000e+00
 -1.863741e+03 -3.039497e+02 0.000000e+00
 -1.849796e+03 -4.983015e+02 0.000000e+00
 -1.797074e+03 -8.089443e+02 0.000000e+00
 -1.677263e+03 -1.244510e+03 0.000000e+00
 -1.454891e+03 -1.780670e+03 0.000000e+00
 -1.096888e+03 -2.337630e+03 0.000000e+00
 -5.963909e+02 -2.775925e+03 0.000000e+00
 0.000000e+00 -2.944485e+03 0.000000e+00
 0.000000e+00 4.756750e+03 0.000000e+00
 -2.062435e+02 4.587893e+03 0.000000e+00
 -4.073674e+02 4.153706e+03 0.000000e+00
 -5.974220e+02 3.579387e+03 0.000000e+00
 -7.725054e+02 2.969363e+03 0.000000e+00
 -9.292412e+02 2.390774e+03 0.000000e+00
 -1.066422e+03 1.868682e+03 0.000000e+00
 -1.183529e+03 1.416590e+03 0.000000e+00
 -1.281572e+03 1.035146e+03 0.000000e+00
 -1.361771e+03 7.214451e+02 0.000000e+00
 -1.426202e+03 4.696003e+02 0.000000e+00
 -1.476846e+03 2.722099e+02 0.000000e+00
 -1.516009e+03 1.220958e+02 0.000000e+00
 -1.545807e+03 1.168734e+01 0.000000e+00
 -1.568387e+03 -6.564245e+01 0.000000e+00
 -1.585505e+03 -1.165764e+02 0.000000e+00
 -1.598827e+03 -1.466342e+02 0.000000e+00
 -1.609674e+03 -1.612259e+02 0.000000e+00
 -1.619247e+03 -1.650181e+02 0.000000e+00
 -1.628286e+03 -1.625471e+02 0.000000e+00
 -1.637473e+03 -1.578665e+02 0.000000e+00
 -1.647010e+03 -1.549404e+02 0.000000e+00
 -1.657094e+03 -1.576386e+02 0.000000e+00
 -1.667333e+03 -1.697679e+02 0.000000e+00
 -1.677431e+03 -1.952678e+02 0.000000e+00
 -1.686311e+03 -2.379948e+02 0.000000e+00
 -1.693060e+03 -3.019965e+02 0.000000e+00
 -1.695810e+03 -3.911082e+02 0.000000e+00
 -1.692903e+03 -5.091593e+02 0.000000e+00
 -1.681456e+03 -6.594112e+02 0.000000e+00
 -1.658704e+03 -8.442585e+02 0.000000e+00
 -1.620745e+03 -1.064967e+03 0.000000e+00
 -1.563437e+03 -1.320257e+03 0.000000e+00
 -1.482185e+03 -1.606772e+03 0.000000e+00
 -1.371415e+03 -1.915694e+03 0.000000e+00
 -1.227726e+03 -2.235253e+03 0.000000e+00
 -1.045904e+03 -2.545987e+03 0.000000e+00
 -8.278630e+02 -2.826361e+03 0.000000e+00
 -5.738983e+02 -3.051061e+03 0.000000e+00
 -2.946015e+02 -3.196342e+03 0.000000e+00
 0.000000e+00 -3.247534e+03 0.000000e+00
 0.000000e+00 4.945287e+03 0.000000e+00
 -3.336490e+02 4.333847e+03 0.000000e+00
 -6.408717e+02 3.123582e+03 0.000000e+00
 -8.952436e+02 1.988022e+03 0.000000e+00
 -1.086423e+03 1.119664e+03 0.000000e+00
 -1.219071e+03 5.249305e+02 0.000000e+00
 -1.305072e+03 1.560303e+02 0.000000e+00
 -1.358625e+03 -4.540947e+01 0.000000e+00
 -1.392948e+03 -1.335575e+02 0.000000e+00
 -1.418552e+03 -1.544315e+02 0.000000e+00
 -1.442549e+03 -1.469774e+02 0.000000e+00
 -1.468381e+03 -1.456920e+02 0.000000e+00
 -1.495696e+03 -1.835643e+02 0.000000e+00
 -1.519862e+03 -2.942864e+02 0.000000e+00
 -1.531085e+03 -5.122278e+02 0.000000e+00
 -1.512850e+03 -8.688258e+02 0.000000e+00
 -1.439938e+03 -1.381805e+03 0.000000e+00
 -1.277437e+03 -2.033704e+03 0.000000e+00
 -9.859766e+02 -2.737232e+03 0.000000e+00
 -5.463353e+02 -3.311680e+03 0.000000e+00
 0.000000e+00 -3.537816e+03 0.000000e+00
 0.000000e+00 5.095117e+03 0.000000e+00
 -1.335112e+02 4.923876e+03 0.000000e+00
 -2.671688e+02 4.480935e+03 0.000000e+00
 -3.972916e+02 3.889029e+03 0.000000e+00
 -5.212704e+02 3.254104e+03 0.000000e+00
 -6.356907e+02 2.645872e+03 0.000000e+00
 -7.383650e+02 2.091851e+03 0.000000e+00
 -8.283929e+02 1.607684e+03 0.000000e+00
 -9.059075e+02 1.195460e+03 0.000000e+00
 -9.712900e+02 8.535414e+02 0.000000e+00
 -1.025665e+03 5.764688e+02 0.000000e+00
 -1.070168e+03 3.574704e+02 0.000000e+00
 -1.106364e+03 1.893816e+02 0.000000e+00
 -1.135595e+03 6.456081e+01 0.000000e+00
 -1.159409e+03 -2.387611e+01 0.000000e+00
 -1.179070e+03 -8.280652e+01 0.000000e+00
 -1.195926e+03 -1.182102e+02 0.000000e+00
 -1.210927e+03 -1.359665e+02 0.000000e+00
 -1.225077e+03 -1.411532e+02 0.000000e+00
 -1.238963e+03 -1.387288e+02 0.000000e+00
 -1.253218e+03 -1.332204e+02 0.000000e+00
 -1.268010e+03 -1.290867e+02 0.000000e+00
 -1.283591e+03 -1.306629e+02 0.000000e+00
 -1.299663e+03 -1.422713e+02 0.000000e+00
 -1.316055e+03 -1.683773e+02 0.000000e+00
 -1.331940e+03 -2.134359e+02 0.000000e+00
 -1.346678e+03 -2.821921e+02 0.000000e+00
 -1.358747e+03 -3.792529e+02 0.000000e+00
 -1.366860e+03 -5.093139e+02 0.000000e+00
 -1.368618e+03 -6.766307e+02 0.000000e+00
 -1.361864e+03 -8.848498e+02 0.000000e+00
 -1.343030e+03 -1.136416e+03 0.000000e+00
 -1.308625e+03 -1.431333e+03 0.000000e+00
 -1.253963e+03 -1.767244e+03 0.000000e+00
 -1.173888e+03 -2.135946e+03 0.000000e+00
 -1.063700e+03 -2.524866e+03 0.000000e+00
 -9.171681e+02 -2.910977e+03 0.000000e+00
 -7.344283e+02 -3.266671e+03 0.000000e+00
 -5.135479e+02 -3.556779e+03 0.000000e+00
 -2.654574e+02 -3.747051e+03 0.000000e+00
 0.000000e+00 -3.814522e+03 0.000000e+00
 0.000000e+00 5.212908e+03 0.000000e+00
 -2.063372e+02 4.599817e+03 0.000000e+00
 -4.116568e+02 3.363348e+03 0.000000e+00
 -5.940186e+02 2.181156e+03 0.000000e+00
 -7.389045e+02 1.262316e+03 0.000000e+00
 -8.456438e+02 6.232374e+02 0.000000e+00
 -9.202382e+02 2.207627e+02 0.000000e+00
 -9.716457e+02 -2.599564e+00 0.000000e+00
 -1.009087e+03 -1.022952e+02 0.000000e+00
 -1.040430e+03 -1.268777e+02 0.000000e+00
 -1.071295e+03 -1.183112e+02 0.000000e+00
 -1.104663e+03 -1.143038e+02 0.000000e+00
 -1.140555e+03 -1.514315e+02 0.000000e+00
 -1.175655e+03 -2.674720e+02 0.000000e+00
 -1.202493e+03 -5.021264e+02 0.000000e+00
 -1.208109e+03 -8.938610e+02 0.000000e+00
 -1.171841e+03 -1.469869e+03 0.000000e+00
 -1.062877e+03 -2.222617e+03 0.000000e+00
 -8.409248e+02 -3.066036e+03 0.000000e+00
 -4.761074e+02 -3.783363e+03 0.000000e+00
 0.000000e+00 -4.073696e+03 0.000000e+00
 0.000000e+00 5.298839e+03 0.000000e+00
 -7.293856e+01 5.130457e+03 0.000000e+00
 -1.502559e+02 4.691154e+03 0.000000e+00
 -2.299200e+02 4.096800e+03 0.000000e+00
 -3.104267e+02 3.452347e+03 0.000000e+00
 -3.882706e+02 2.829015e+03 0.000000e+00
 -4.604547e+02 2.256640e+03 0.000000e+00
 -5.258589e+02 1.752769e+03 0.000000e+00
 -5.838798e+02 1.320755e+03 0.000000e+00
 -6.344178e+02 9.600052e+02 0.000000e+00
 -6.778544e+02 6.656874e+02 0.000000e+00
 -7.147464e+02 4.315826e+02 0.000000e+00
 -7.459953e+02 2.506508e+02 0.000000e+00
 -7.724243e+02 1.154145e+02 0.000000e+00
 -7.950821e+02 1.890887e+01 0.000000e+00
 -8.148039e+02 -4.587924e+01 0.000000e+00
 -8.325779e+02 -8.516916e+01 0.000000e+00
 -8.490800e+02 -1.050701e+02 0.000000e+00
 -8.651053e+02 -1.109805e+02 0.000000e+00
 -8.810839e+02 -1.081955e+02 0.000000e+00
 -8.975641e+02 -1.015838e+02 0.000000e+00
 -9.146677e+02 -9.595965e+01 0.000000e+00
 -9.326380e+02 -9.602425e+01 0.000000e+00
 -9.512696e+02 -1.064913e+02 0.000000e+00
 -9.704871e+02 -1.322720e+02 0.000000e+00
 -9.896713e+02 -1.783064e+02 0.000000e+00
 -1.008353e+03 -2.498685e+02 0.000000e+00
 -1.025399e+03 -3.521841e+02 0.000000e+00
 -1.039848e+03 -4.907106e+02 0.000000e+00
 -1.049842e+03 -6.705288e+02 0.000000e+00
 -1.053735e+03 -8.963117e+02 0.000000e+00
 -1.048632e+03 -1.171708e+03 0.000000e+00
 -1.031847e+03 -1.498188e+03 0.000000e+00
 -9.991353e+02 -1.874681e+03 0.000000e+00
 -9.462650e+02 -2.294227e+03 0.000000e+00
 -8.679786e+02 -2.744804e+03 0.000000e+00
 -7.582223e+02 -3.201583e+03 0.000000e+00
 -6.149494e+02 -3.631784e+03 0.000000e+00
 -4.343215e+02 -3.989709e+03 0.000000e+00
 -2.264124e+02 -4.228375e+03 0.000000e+00
 0.000000e+00 -4.313715e+03 0.000000e+00
 0.000000e+00 5.357469e+03 0.000000e+00
 -9.763544e+01 4.758305e+03 0.000000e+00
 -2.155329e+02 3.523027e+03 0.000000e+00