<?xml version="1.0"?>
<VTKFile type="UnstructuredGrid" version="0.1">
<UnstructuredGrid>
<FieldData>
<DataArray Name="TIME" type="Float64" format="ascii" NumberOfTuples="1">
0.000000e+00
</DataArray>
</FieldData>
<FieldData>
<DataArray Name="CYCLE" type="Int32" format="ascii" NumberOfTuples="1">
0
</DataArray>
</FieldData>
<Piece NumberOfPoints="40" NumberOfCells="10">
<Points>
<DataArray NumberOfComponents="3" type="Float64" format="ascii">
0.000000e+00 0.000000e+00 0.000000e+00
5.000000e-01 0.000000e+00 0.000000e+00
1.000000e+00 0.000000e+00 0.000000e+00
0.000000e+00 5.000000e-01 0.000000e+00
1.000000e+00 5.000000e-01 0.000000e+00
0.000000e+00 1.000000e+00 0.000000e+00
5.000000e-01 1.000000e+00 0.000000e+00
1.000000e+00 1.000000e+00 0.000000e+00
0.000000e+00 0.000000e+00 2.500000e-01
1.000000e+00 0.000000e+00 2.500000e-01
0.000000e+00 1.000000e+00 2.500000e-01
1.000000e+00 1.000000e+00 2.500000e-01
0.000000e+00 0.000000e+00 5.000000e-01
5.000000e-01 0.000000e+00 5.000000e-01
1.000000e+00 0.000000e+00 5.000000e-01
0.000000e+00 5.000000e-01 5.000000e-01
1.000000e+00 5.000000e-01 5.000000e-01
0.000000e+00 1.000000e+00 5.000000e-01
5.000000e-01 1.000000e+00 5.000000e-01
1.000000e+00 1.000000e+00 5.000000e-01
0.000000e+00 0.000000e+00 5.000000e-01
5.000000e-01 0.000000e+00 5.000000e-01
1.000000e+00 0.000000e+00 5.000000e-01
0.000000e+00 5.000000e-01 5.000000e-01
1.000000e+00 5.000000e-01 5.000000e-01
0.000000e+00 1.000000e+00 5.000000e-01
5.000000e-01 1.000000e+00 5.000000e-01
1.000000e+00 1.000000e+00 5.000000e-01
0.000000e+00 0.000000e+00 7.500000e-01
1.000000e+00 0.000000e+00 7.500000e-01
0.000000e+00 1.000000e+00 7.500000e-01
1.000000e+00 1.000000e+00 7.500000e-01
0.000000e+00 0.000000e+00 1.000000e+00
5.000000e-01 0.000000e+00 1.000000e+00
1.000000e+00 0.000000e+00 1.000000e+00
0.000000e+00 5.000000e-01 1.000000e+00
1.000000e+00 5.000000e-01 1.000000e+00
0.000000e+00 1.000000e+00 1.000000e+00
5.000000e-01 1.000000e+00 1.000000e+00
1.000000e+00 1.000000e+00 1.000000e+00
</DataArray>
</Points>
<Cells>
<DataArray Name="connectivity" type="Int32" format="ascii">
0 5 7 2
0 12 17 5
2 7 19 14
0 2 14 12
5 17 19 7
32 34 39 37
20 32 37 25
22 27 39 34
20 22 34 32
25 37 39 27
</DataArray>
<DataArray Name="offsets" type="Int32" format="ascii">
4
8
12
16
20
24
28
32
36
40
</DataArray>
<DataArray Name="types" type="UInt8" format="ascii">
9
9
9
9
9
9
9
9
9
9
</DataArray>
</Cells>
<CellData>
<DataArray Name="data" type="Float64" NumberOfComponents="3" format="ascii">
5.000000e-01 1.000000e+00 1.500000e+00
0.000000e+00 0.000000e+00 0.000000e+00
1.000000e+00 2.000000e+00 3.000000e+00
5.000000e-01 1.000000e+00 1.500000e+00
5.000000e-01 1.000000e+00 1.500000e+00
5.000000e-01 1.000000e+00 1.500000e+00
0.000000e+00 0.000000e+00 0.000000e+00
1.000000e+00 2.000000e+00 3.000000e+00
5.000000e-01 1.000000e+00 1.500000e+00
5.000000e-01 1.000000e+00 1.500000e+00
</DataArray>
<DataArray Name="mesh_vars/FaceElements_Color" type="Float64" NumberOfComponents="1" format="ascii">
0.000000e+00
1.000000e+00
2.000000e+00
3.000000e+00
4.000000e+00
0.000000e+00
1.000000e+00
2.000000e+00
3.000000e+00
4.000000e+00
</DataArray>
<DataArray Name="mesh_vars/FaceElements_Id" type="Float64" NumberOfComponents="1" format="ascii">
1.000000e+00
3.000000e+00
4.000000e+00
5.000000e+00
6.000000e+00
9.000000e+00
1.000000e+01
1.100000e+01
1.200000e+01
1.300000e+01
</DataArray>
<DataArray Name="mesh_vars/FaceElements_Owner" type="Float64" NumberOfComponents="1" format="ascii">
0.000000e+00
0.000000e+00
0.000000e+00
0.000000e+00
0.000000e+00
0.000000e+00
0.000000e+00
0.000000e+00
0.000000e+00
0.000000e+00
</DataArray>
<DataArray Name="mesh_vars/FaceElements_Tag" type="Float64" NumberOfComponents="1" format="ascii">
1.000000e+02
1.000000e+00
2.000000e+00
1.000000e+01
2.000000e+01
2.000000e+02
1.000000e+00
2.000000e+00
1.000000e+01
2.000000e+01
</DataArray>
</CellData>
</Piece>
</UnstructuredGrid>
</VTKFile>
