<?xml version="1.0"?>
<VTKFile type="UnstructuredGrid" version="0.1">
<UnstructuredGrid>
<FieldData>
<DataArray Name="TIME" type="Float64" format="ascii" NumberOfTuples="1">
0.000000e+00
</DataArray>
</FieldData>
<FieldData>
<DataArray Name="CYCLE" type="Int32" format="ascii" NumberOfTuples="1">
0
</DataArray>
</FieldData>
<Piece NumberOfPoints="144" NumberOfCells="66">
<Points>
<DataArray NumberOfComponents="3" type="Float64" format="ascii">
-2.500000e+00 1.200000e+00 0.000000e+00
-1.636364e+00 1.200000e+00 0.000000e+00
-7.727273e-01 1.200000e+00 0.000000e+00
9.090909e-02 1.200000e+00 0.000000e+00
9.545454e-01 1.200000e+00 0.000000e+00
1.818182e+00 1.200000e+00 0.000000e+00
2.681818e+00 1.200000e+00 0.000000e+00
3.545455e+00 1.200000e+00 0.000000e+00
4.409091e+00 1.200000e+00 0.000000e+00
5.272727e+00 1.200000e+00 0.000000e+00
6.136364e+00 1.200000e+00 0.000000e+00
7.000000e+00 1.200000e+00 0.000000e+00
-2.500000e+00 2.066667e+00 0.000000e+00
-1.636364e+00 2.066667e+00 0.000000e+00
-7.727273e-01 2.066667e+00 0.000000e+00
9.090909e-02 2.066667e+00 0.000000e+00
9.545454e-01 2.066667e+00 0.000000e+00
1.818182e+00 2.066667e+00 0.000000e+00
2.681818e+00 2.066667e+00 0.000000e+00
3.545455e+00 2.066667e+00 0.000000e+00
4.409091e+00 2.066667e+00 0.000000e+00
5.272727e+00 2.066667e+00 0.000000e+00
6.136364e+00 2.066667e+00 0.000000e+00
7.000000e+00 2.066667e+00 0.000000e+00
-2.500000e+00 2.933333e+00 0.000000e+00
-1.636364e+00 2.933333e+00 0.000000e+00
-7.727273e-01 2.933333e+00 0.000000e+00
9.090909e-02 2.933333e+00 0.000000e+00
9.545454e-01 2.933333e+00 0.000000e+00
1.818182e+00 2.933333e+00 0.000000e+00
2.681818e+00 2.933333e+00 0.000000e+00
3.545455e+00 2.933333e+00 0.000000e+00
4.409091e+00 2.933333e+00 0.000000e+00
5.272727e+00 2.933333e+00 0.000000e+00
6.136364e+00 2.933333e+00 0.000000e+00
7.000000e+00 2.933333e+00 0.000000e+00
-2.500000e+00 3.800000e+00 0.000000e+00
-1.636364e+00 3.800000e+00 0.000000e+00
-7.727273e-01 3.800000e+00 0.000000e+00
9.090909e-02 3.800000e+00 0.000000e+00
9.545454e-01 3.800000e+00 0.000000e+00
1.818182e+00 3.800000e+00 0.000000e+00
2.681818e+00 3.800000e+00 0.000000e+00
3.545455e+00 3.800000e+00 0.000000e+00
4.409091e+00 3.800000e+00 0.000000e+00
5.272727e+00 3.800000e+00 0.000000e+00
6.136364e+00 3.800000e+00 0.000000e+00
7.000000e+00 3.800000e+00 0.000000e+00
-2.500000e+00 1.200000e+00 2.000000e+00
-1.636364e+00 1.200000e+00 2.000000e+00
-7.727273e-01 1.200000e+00 2.000000e+00
9.090909e-02 1.200000e+00 2.000000e+00
9.545454e-01 1.200000e+00 2.000000e+00
1.818182e+00 1.200000e+00 2.000000e+00
2.681818e+00 1.200000e+00 2.000000e+00
3.545455e+00 1.200000e+00 2.000000e+00
4.409091e+00 1.200000e+00 2.000000e+00
5.272727e+00 1.200000e+00 2.000000e+00
6.136364e+00 1.200000e+00 2.000000e+00
7.000000e+00 1.200000e+00 2.000000e+00
-2.500000e+00 2.066667e+00 2.000000e+00
-1.636364e+00 2.066667e+00 2.000000e+00
-7.727273e-01 2.066667e+00 2.000000e+00
9.090909e-02 2.066667e+00 2.000000e+00
9.545454e-01 2.066667e+00 2.000000e+00
1.818182e+00 2.066667e+00 2.000000e+00
2.681818e+00 2.066667e+00 2.000000e+00
3.545455e+00 2.066667e+00 2.000000e+00
4.409091e+00 2.066667e+00 2.000000e+00
5.272727e+00 2.066667e+00 2.000000e+00
6.136364e+00 2.066667e+00 2.000000e+00
7.000000e+00 2.066667e+00 2.000000e+00
-2.500000e+00 2.933333e+00 2.000000e+00
-1.636364e+00 2.933333e+00 2.000000e+00
-7.727273e-01 2.933333e+00 2.000000e+00
9.090909e-02 2.933333e+00 2.000000e+00
9.545454e-01 2.933333e+00 2.000000e+00
1.818182e+00 2.933333e+00 2.000000e+00
2.681818e+00 2.933333e+00 2.000000e+00
3.545455e+00 2.933333e+00 2.000000e+00
4.409091e+00 2.933333e+00 2.000000e+00
5.272727e+00 2.933333e+00 2.000000e+00
6.136364e+00 2.933333e+00 2.000000e+00
7.000000e+00 2.933333e+00 2.000000e+00
-2.500000e+00 3.800000e+00 2.000000e+00
-1.636364e+00 3.800000e+00 2.000000e+00
-7.727273e-01 3.800000e+00 2.000000e+00
9.090909e-02 3.800000e+00 2.000000e+00
9.545454e-01 3.800000e+00 2.000000e+00
1.818182e+00 3.800000e+00 2.000000e+00
2.681818e+00 3.800000e+00 2.000000e+00
3.545455e+00 3.800000e+00 2.000000e+00
4.409091e+00 3.800000e+00 2.000000e+00
5.272727e+00 3.800000e+00 2.000000e+00
6.136364e+00 3.800000e+00 2.000000e+00
7.000000e+00 3.800000e+00 2.000000e+00
-2.500000e+00 1.200000e+00 4.000000e+00
-1.636364e+00 1.200000e+00 4.000000e+00
-7.727273e-01 1.200000e+00 4.000000e+00
9.090909e-02 1.200000e+00 4.000000e+00
9.545454e-01 1.200000e+00 4.000000e+00
1.818182e+00 1.200000e+00 4.000000e+00
2.681818e+00 1.200000e+00 4.000000e+00
3.545455e+00 1.200000e+00 4.000000e+00
4.409091e+00 1.200000e+00 4.000000e+00
5.272727e+00 1.200000e+00 4.000000e+00
6.136364e+00 1.200000e+00 4.000000e+00
7.000000e+00 1.200000e+00 4.000000e+00
-2.500000e+00 2.066667e+00 4.000000e+00
-1.636364e+00 2.066667e+00 4.000000e+00
-7.727273e-01 2.066667e+00 4.000000e+00
9.090909e-02 2.066667e+00 4.000000e+00
9.545454e-01 2.066667e+00 4.000000e+00
1.818182e+00 2.066667e+00 4.000000e+00
2.681818e+00 2.066667e+00 4.000000e+00
3.545455e+00 2.066667e+00 4.000000e+00
4.409091e+00 2.066667e+00 4.000000e+00
5.272727e+00 2.066667e+00 4.000000e+00
6.136364e+00 2.066667e+00 4.000000e+00
7.000000e+00 2.066667e+00 4.000000e+00
-2.500000e+00 2.933333e+00 4.000000e+00
-1.636364e+00 2.933333e+00 4.000000e+00
-7.727273e-01 2.933333e+00 4.000000e+00
9.090909e-02 2.933333e+00 4.000000e+00
9.545454e-01 2.933333e+00 4.000000e+00
1.818182e+00 2.933333e+00 4.000000e+00
2.681818e+00 2.933333e+00 4.000000e+00
3.545455e+00 2.933333e+00 4.000000e+00
4.409091e+00 2.933333e+00 4.000000e+00
5.272727e+00 2.933333e+00 4.000000e+00
6.136364e+00 2.933333e+00 4.000000e+00
7.000000e+00 2.933333e+00 4.000000e+00
-2.500000e+00 3.800000e+00 4.000000e+00
-1.636364e+00 3.800000e+00 4.000000e+00
-7.727273e-01 3.800000e+00 4.000000e+00
9.090909e-02 3.800000e+00 4.000000e+00
9.545454e-01 3.800000e+00 4.000000e+00
1.818182e+00 3.800000e+00 4.000000e+00
2.681818e+00 3.800000e+00 4.000000e+00
3.545455e+00 3.800000e+00 4.000000e+00
4.409091e+00 3.800000e+00 4.000000e+00
5.272727e+00 3.800000e+00 4.000000e+00
6.136364e+00 3.800000e+00 4.000000e+00
7.000000e+00 3.800000e+00 4.000000e+00
</DataArray>
</Points>
<Cells>
<DataArray Name="connectivity" type="Int32" format="ascii">
0 48 49 1 12 60 61 13
1 49 50 2 13 61 62 14
2 50 51 3 14 62 63 15
3 51 52 4 15 63 64 16
4 52 53 5 16 64 65 17
5 53 54 6 17 65 66 18
6 54 55 7 18 66 67 19
7 55 56 8 19 67 68 20
8 56 57 9 20 68 69 21
9 57 58 10 21 69 70 22
10 58 59 11 22 70 71 23
12 60 61 13 24 72 73 25
13 61 62 14 25 73 74 26
14 62 63 15 26 74 75 27
15 63 64 16 27 75 76 28
16 64 65 17 28 76 77 29
17 65 66 18 29 77 78 30
18 66 67 19 30 78 79 31
19 67 68 20 31 79 80 32
20 68 69 21 32 80 81 33
21 69 70 22 33 81 82 34
22 70 71 23 34 82 83 35
24 72 73 25 36 84 85 37
25 73 74 26 37 85 86 38
26 74 75 27 38 86 87 39
27 75 76 28 39 87 88 40
28 76 77 29 40 88 89 41
29 77 78 30 41 89 90 42
30 78 79 31 42 90 91 43
31 79 80 32 43 91 92 44
32 80 81 33 44 92 93 45
33 81 82 34 45 93 94 46
34 82 83 35 46 94 95 47
48 96 97 49 60 108 109 61
49 97 98 50 61 109 110 62
50 98 99 51 62 110 111 63
51 99 100 52 63 111 112 64
52 100 101 53 64 112 113 65
53 101 102 54 65 113 114 66
54 102 103 55 66 114 115 67
55 103 104 56 67 115 116 68
56 104 105 57 68 116 117 69
57 105 106 58 69 117 118 70
58 106 107 59 70 118 119 71
60 108 109 61 72 120 121 73
61 109 110 62 73 121 122 74
62 110 111 63 74 122 123 75
63 111 112 64 75 123 124 76
64 112 113 65 76 124 125 77
65 113 114 66 77 125 126 78
66 114 115 67 78 126 127 79
67 115 116 68 79 127 128 80
68 116 117 69 80 128 129 81
69 117 118 70 81 129 130 82
70 118 119 71 82 130 131 83
72 120 121 73 84 132 133 85
73 121 122 74 85 133 134 86
74 122 123 75 86 134 135 87
75 123 124 76 87 135 136 88
76 124 125 77 88 136 137 89
77 125 126 78 89 137 138 90
78 126 127 79 90 138 139 91
79 127 128 80 91 139 140 92
80 128 129 81 92 140 141 93
81 129 130 82 93 141 142 94
82 130 131 83 94 142 143 95
</DataArray>
<DataArray Name="offsets" type="Int32" format="ascii">
8
16
24
32
40
48
56
64
72
80
88
96
104
112
120
128
136
144
152
160
168
176
184
192
200
208
216
224
232
240
248
256
264
272
280
288
296
304
312
320
328
336
344
352
360
368
376
384
392
400
408
416
424
432
440
448
456
464
472
480
488
496
504
512
520
528
</DataArray>
<DataArray Name="types" type="UInt8" format="ascii">
12
12
12
12
12
12
12
12
12
12
12
12
12
12
12
12
12
12
12
12
12
12
12
12
12
12
12
12
12
12
12
12
12
12
12
12
12
12
12
12
12
12
12
12
12
12
12
12
12
12
12
12
12
12
12
12
12
12
12
12
12
12
12
12
12
12
</DataArray>
</Cells>
<PointData>
<DataArray Name="mesh_vars/Nodes_Id" type="Float64" NumberOfComponents="1" format="ascii">
0.000000e+00
1.000000e+00
2.000000e+00
3.000000e+00
4.000000e+00
5.000000e+00
6.000000e+00
7.000000e+00
8.000000e+00
9.000000e+00
1.000000e+01
1.100000e+01
1.200000e+01
1.300000e+01
1.400000e+01
1.500000e+01
1.600000e+01
1.700000e+01
1.800000e+01
1.900000e+01
2.000000e+01
2.100000e+01
2.200000e+01
2.300000e+01
2.400000e+01
2.500000e+01
2.600000e+01
2.700000e+01
2.800000e+01
2.900000e+01
3.000000e+01
3.100000e+01
3.200000e+01
3.300000e+01
3.400000e+01
3.500000e+01
3.600000e+01
3.700000e+01
3.800000e+01
3.900000e+01
4.000000e+01
4.100000e+01
4.200000e+01
4.300000e+01
4.400000e+01
4.500000e+01
4.600000e+01
4.700000e+01
4.800000e+01
4.900000e+01
5.000000e+01
5.100000e+01
5.200000e+01
5.300000e+01
5.400000e+01
5.500000e+01
5.600000e+01
5.700000e+01
5.800000e+01
5.900000e+01
6.000000e+01
6.100000e+01
6.200000e+01
6.300000e+01
6.400000e+01
6.500000e+01
6.600000e+01
6.700000e+01
6.800000e+01
6.900000e+01
7.000000e+01
7.100000e+01
7.200000e+01
7.300000e+01
7.400000e+01
7.500000e+01
7.600000e+01
7.700000e+01
7.800000e+01
7.900000e+01
8.000000e+01
8.100000e+01
8.200000e+01
8.300000e+01
8.400000e+01
8.500000e+01
8.600000e+01
8.700000e+01
8.800000e+01
8.900000e+01
9.000000e+01
9.100000e+01
9.200000e+01
9.300000e+01
9.400000e+01
9.500000e+01
9.600000e+01
9.700000e+01
9.800000e+01
9.900000e+01
1.000000e+02
1.010000e+02
1.020000e+02
1.030000e+02
1.040000e+02
1.050000e+02
1.060000e+02
1.070000e+02
1.080000e+02
1.090000e+02
1.100000e+02
1.110000e+02
1.120000e+02
1.130000e+02
1.140000e+02
1.150000e+02
1.160000e+02
1.170000e+02
1.180000e+02
1.190000e+02
1.200000e+02
1.210000e+02
1.220000e+02
1.230000e+02
1.240000e+02
1.250000e+02
1.260000e+02
1.270000e+02
1.280000e+02
1.290000e+02
1.300000e+02
1.310000e+02
1.320000e+02
1.330000e+02
1.340000e+02
1.350000e+02
1.360000e+02
1.370000e+02
1.380000e+02
1.390000e+02
1.400000e+02
1.410000e+02
1.420000e+02
1.430000e+02
</DataArray>
<DataArray Name="mesh_vars/Nodes_Tag" type="Float64" NumberOfComponents="1" format="ascii">
0.000000e+00
1.000000e+00
2.000000e+00
3.000000e+00
4.000000e+00
5.000000e+00
6.000000e+00
7.000000e+00
8.000000e+00
9.000000e+00
1.000000e+01
1.100000e+01
1.200000e+01
1.300000e+01
1.400000e+01
1.500000e+01
1.600000e+01
1.700000e+01
1.800000e+01
1.900000e+01
2.000000e+01
2.100000e+01
2.200000e+01
2.300000e+01
2.400000e+01
2.500000e+01
2.600000e+01
2.700000e+01
2.800000e+01
2.900000e+01
3.000000e+01
3.100000e+01
3.200000e+01
3.300000e+01
3.400000e+01
3.500000e+01
3.600000e+01
3.700000e+01
3.800000e+01
3.900000e+01
4.000000e+01
4.100000e+01
4.200000e+01
4.300000e+01
4.400000e+01
4.500000e+01
4.600000e+01
4.700000e+01
4.800000e+01
4.900000e+01
5.000000e+01
5.100000e+01
5.200000e+01
5.300000e+01
5.400000e+01
5.500000e+01
5.600000e+01
5.700000e+01
5.800000e+01
5.900000e+01
6.000000e+01
6.100000e+01
6.200000e+01
6.300000e+01
6.400000e+01
6.500000e+01
6.600000e+01
6.700000e+01
6.800000e+01
6.900000e+01
7.000000e+01
7.100000e+01
7.200000e+01
7.300000e+01
7.400000e+01
7.500000e+01
7.600000e+01
7.700000e+01
7.800000e+01
7.900000e+01
8.000000e+01
8.100000e+01
8.200000e+01
8.300000e+01
8.400000e+01
8.500000e+01
8.600000e+01
8.700000e+01
8.800000e+01
8.900000e+01
9.000000e+01
9.100000e+01
9.200000e+01
9.300000e+01
9.400000e+01
9.500000e+01
9.600000e+01
9.700000e+01
9.800000e+01
9.900000e+01
1.000000e+02
1.010000e+02
1.020000e+02
1.030000e+02
1.040000e+02
1.050000e+02
1.060000e+02
1.070000e+02
1.080000e+02
1.090000e+02
1.100000e+02
1.110000e+02
1.120000e+02
1.130000e+02
1.140000e+02
1.150000e+02
1.160000e+02
1.170000e+02
1.180000e+02
1.190000e+02
1.200000e+02
1.210000e+02
1.220000e+02
1.230000e+02
1.240000e+02
1.250000e+02
1.260000e+02
1.270000e+02
1.280000e+02
1.290000e+02
1.300000e+02
1.310000e+02
1.320000e+02
1.330000e+02
1.340000e+02
1.350000e+02
1.360000e+02
1.370000e+02
1.380000e+02
1.390000e+02
1.400000e+02
1.410000e+02
1.420000e+02
1.430000e+02
</DataArray>
</PointData>
<CellData>
<DataArray Name="data" type="Float64" NumberOfComponents="9" format="ascii">
-2.275000e+01 -4.343182e+01 -6.411364e+01 -2.481818e+01 -4.550000e+01 -6.618182e+01 -2.688636e+01 -4.756818e+01 -6.825000e+01
-1.325000e+01 -2.529545e+01 -3.734091e+01 -1.445455e+01 -2.650000e+01 -3.854546e+01 -1.565909e+01 -2.770455e+01 -3.975000e+01
-3.750000e+00 -7.159091e+00 -1.056818e+01 -4.090909e+00 -7.500000e+00 -1.090909e+01 -4.431818e+00 -7.840909e+00 -1.125000e+01
5.750000e+00 1.097727e+01 1.620455e+01 6.272727e+00 1.150000e+01 1.672727e+01 6.795455e+00 1.202273e+01 1.725000e+01
1.525000e+01 2.911364e+01 4.297727e+01 1.663636e+01 3.050000e+01 4.436364e+01 1.802273e+01 3.188636e+01 4.575000e+01
2.475000e+01 4.725000e+01 6.975000e+01 2.700000e+01 4.950000e+01 7.200000e+01 2.925000e+01 5.175000e+01 7.425000e+01
3.425000e+01 6.538636e+01 9.652273e+01 3.736364e+01 6.850000e+01 9.963636e+01 4.047727e+01 7.161364e+01 1.027500e+02
4.375000e+01 8.352273e+01 1.232955e+02 4.772727e+01 8.750000e+01 1.272727e+02 5.170454e+01 9.147727e+01 1.312500e+02
5.325000e+01 1.016591e+02 1.500682e+02 5.809091e+01 1.065000e+02 1.549091e+02 6.293182e+01 1.113409e+02 1.597500e+02
6.275000e+01 1.197955e+02 1.768409e+02 6.845454e+01 1.255000e+02 1.825455e+02 7.415909e+01 1.312045e+02 1.882500e+02
7.225000e+01 1.379318e+02 2.036136e+02 7.881818e+01 1.445000e+02 2.101818e+02 8.538636e+01 1.510682e+02 2.167500e+02
-2.275000e+01 -4.343182e+01 -6.411364e+01 -2.481818e+01 -4.550000e+01 -6.618182e+01 -2.688636e+01 -4.756818e+01 -6.825000e+01
-1.325000e+01 -2.529545e+01 -3.734091e+01 -1.445455e+01 -2.650000e+01 -3.854546e+01 -1.565909e+01 -2.770455e+01 -3.975000e+01
-3.750000e+00 -7.159091e+00 -1.056818e+01 -4.090909e+00 -7.500000e+00 -1.090909e+01 -4.431818e+00 -7.840909e+00 -1.125000e+01
5.750000e+00 1.097727e+01 1.620455e+01 6.272727e+00 1.150000e+01 1.672727e+01 6.795455e+00 1.202273e+01 1.725000e+01
1.525000e+01 2.911364e+01 4.297727e+01 1.663636e+01 3.050000e+01 4.436364e+01 1.802273e+01 3.188636e+01 4.575000e+01
2.475000e+01 4.725000e+01 6.975000e+01 2.700000e+01 4.950000e+01 7.200000e+01 2.925000e+01 5.175000e+01 7.425000e+01
3.425000e+01 6.538636e+01 9.652273e+01 3.736364e+01 6.850000e+01 9.963636e+01 4.047727e+01 7.161364e+01 1.027500e+02
4.375000e+01 8.352273e+01 1.232955e+02 4.772727e+01 8.750000e+01 1.272727e+02 5.170454e+01 9.147727e+01 1.312500e+02
5.325000e+01 1.016591e+02 1.500682e+02 5.809091e+01 1.065000e+02 1.549091e+02 6.293182e+01 1.113409e+02 1.597500e+02
6.275000e+01 1.197955e+02 1.768409e+02 6.845454e+01 1.255000e+02 1.825455e+02 7.415909e+01 1.312045e+02 1.882500e+02
7.225000e+01 1.379318e+02 2.036136e+02 7.881818e+01 1.445000e+02 2.101818e+02 8.538636e+01 1.510682e+02 2.167500e+02
-2.275000e+01 -4.343182e+01 -6.411364e+01 -2.481818e+01 -4.550000e+01 -6.618182e+01 -2.688636e+01 -4.756818e+01 -6.825000e+01
-1.325000e+01 -2.529545e+01 -3.734091e+01 -1.445455e+01 -2.650000e+01 -3.854546e+01 -1.565909e+01 -2.770455e+01 -3.975000e+01
-3.750000e+00 -7.159091e+00 -1.056818e+01 -4.090909e+00 -7.500000e+00 -1.090909e+01 -4.431818e+00 -7.840909e+00 -1.125000e+01
5.750000e+00 1.097727e+01 1.620455e+01 6.272727e+00 1.150000e+01 1.672727e+01 6.795455e+00 1.202273e+01 1.725000e+01
1.525000e+01 2.911364e+01 4.297727e+01 1.663636e+01 3.050000e+01 4.436364e+01 1.802273e+01 3.188636e+01 4.575000e+01
2.475000e+01 4.725000e+01 6.975000e+01 2.700000e+01 4.950000e+01 7.200000e+01 2.925000e+01 5.175000e+01 7.425000e+01
3.425000e+01 6.538636e+01 9.652273e+01 3.736364e+01 6.850000e+01 9.963636e+01 4.047727e+01 7.161364e+01 1.027500e+02
4.375000e+01 8.352273e+01 1.232955e+02 4.772727e+01 8.750000e+01 1.272727e+02 5.170454e+01 9.147727e+01 1.312500e+02
5.325000e+01 1.016591e+02 1.500682e+02 5.809091e+01 1.065000e+02 1.549091e+02 6.293182e+01 1.113409e+02 1.597500e+02
6.275000e+01 1.197955e+02 1.768409e+02 6.845454e+01 1.255000e+02 1.825455e+02 7.415909e+01 1.312045e+02 1.882500e+02
7.225000e+01 1.379318e+02 2.036136e+02 7.881818e+01 1.445000e+02 2.101818e+02 8.538636e+01 1.510682e+02 2.167500e+02
-2.275000e+01 -4.343182e+01 -6.411364e+01 -2.481818e+01 -4.550000e+01 -6.618182e+01 -2.688636e+01 -4.756818e+01 -6.825000e+01
-1.325000e+01 -2.529545e+01 -3.734091e+01 -1.445455e+01 -2.650000e+01 -3.854546e+01 -1.565909e+01 -2.770455e+01 -3.975000e+01
-3.750000e+00 -7.159091e+00 -1.056818e+01 -4.090909e+00 -7.500000e+00 -1.090909e+01 -4.431818e+00 -7.840909e+00 -1.125000e+01
5.750000e+00 1.097727e+01 1.620455e+01 6.272727e+00 1.150000e+01 1.672727e+01 6.795455e+00 1.202273e+01 1.725000e+01
1.525000e+01 2.911364e+01 4.297727e+01 1.663636e+01 3.050000e+01 4.436364e+01 1.802273e+01 3.188636e+01 4.575000e+01
2.475000e+01 4.725000e+01 6.975000e+01 2.700000e+01 4.950000e+01 7.200000e+01 2.925000e+01 5.175000e+01 7.425000e+01
3.425000e+01 6.538636e+01 9.652273e+01 3.736364e+01 6.850000e+01 9.963636e+01 4.047727e+01 7.161364e+01 1.027500e+02
4.375000e+01 8.352273e+01 1.232955e+02 4.772727e+01 8.750000e+01 1.272727e+02 5.170454e+01 9.147727e+01 1.312500e+02
5.325000e+01 1.016591e+02 1.500682e+02 5.809091e+01 1.065000e+02 1.549091e+02 6.293182e+01 1.113409e+02 1.597500e+02
6.275000e+01 1.197955e+02 1.768409e+02 6.845454e+01 1.255000e+02 1.825455e+02 7.415909e+01 1.312045e+02 1.882500e+02
7.225000e+01 1.379318e+02 2.036136e+02 7.881818e+01 1.445000e+02 2.101818e+02 8.538636e+01 1.510682e+02 2.167500e+02
-2.275000e+01 -4.343182e+01 -6.411364e+01 -2.481818e+01 -4.550000e+01 -6.618182e+01 -2.688636e+01 -4.756818e+01 -6.825000e+01
-1.325000e+01 -2.529545e+01 -3.734091e+01 -1.445455e+01 -2.650000e+01 -3.854546e+01 -1.565909e+01 -2.770455e+01 -3.975000e+01
-3.750000e+00 -7.159091e+00 -1.056818e+01 -4.090909e+00 -7.500000e+00 -1.090909e+01 -4.431818e+00 -7.840909e+00 -1.125000e+01
5.750000e+00 1.097727e+01 1.620455e+01 6.272727e+00 1.150000e+01 1.672727e+01 6.795455e+00 1.202273e+01 1.725000e+01
1.525000e+01 2.911364e+01 4.297727e+01 1.663636e+01 3.050000e+01 4.436364e+01 1.802273e+01 3.188636e+01 4.575000e+01
2.475000e+01 4.725000e+01 6.975000e+01 2.700000e+01 4.950000e+01 7.200000e+01 2.925000e+01 5.175000e+01 7.425000e+01
3.425000e+01 6.538636e+01 9.652273e+01 3.736364e+01 6.850000e+01 9.963636e+01 4.047727e+01 7.161364e+01 1.027500e+02
4.375000e+01 8.352273e+01 1.232955e+02 4.772727e+01 8.750000e+01 1.272727e+02 5.170454e+01 9.147727e+01 1.312500e+02
5.325000e+01 1.016591e+02 1.500682e+02 5.809091e+01 1.065000e+02 1.549091e+02 6.293182e+01 1.113409e+02 1.597500e+02
6.275000e+01 1.197955e+02 1.768409e+02 6.845454e+01 1.255000e+02 1.825455e+02 7.415909e+01 1.312045e+02 1.882500e+02
7.225000e+01 1.379318e+02 2.036136e+02 7.881818e+01 1.445000e+02 2.101818e+02 8.538636e+01 1.510682e+02 2.167500e+02
-2.275000e+01 -4.343182e+01 -6.411364e+01 -2.481818e+01 -4.550000e+01 -6.618182e+01 -2.688636e+01 -4.756818e+01 -6.825000e+01
-1.325000e+01 -2.529545e+01 -3.734091e+01 -1.445455e+01 -2.650000e+01 -3.854546e+01 -1.565909e+01 -2.770455e+01 -3.975000e+01
-3.750000e+00 -7.159091e+00 -1.056818e+01 -4.090909e+00 -7.500000e+00 -1.090909e+01 -4.431818e+00 -7.840909e+00 -1.125000e+01
5.750000e+00 1.097727e+01 1.620455e+01 6.272727e+00 1.150000e+01 1.672727e+01 6.795455e+00 1.202273e+01 1.725000e+01
1.525000e+01 2.911364e+01 4.297727e+01 1.663636e+01 3.050000e+01 4.436364e+01 1.802273e+01 3.188636e+01 4.575000e+01
2.475000e+01 4.725000e+01 6.975000e+01 2.700000e+01 4.950000e+01 7.200000e+01 2.925000e+01 5.175000e+01 7.425000e+01
3.425000e+01 6.538636e+01 9.652273e+01 3.736364e+01 6.850000e+01 9.963636e+01 4.047727e+01 7.161364e+01 1.027500e+02
4.375000e+01 8.352273e+01 1.232955e+02 4.772727e+01 8.750000e+01 1.272727e+02 5.170454e+01 9.147727e+01 1.312500e+02
5.325000e+01 1.016591e+02 1.500682e+02 5.809091e+01 1.065000e+02 1.549091e+02 6.293182e+01 1.113409e+02 1.597500e+02
6.275000e+01 1.197955e+02 1.768409e+02 6.845454e+01 1.255000e+02 1.825455e+02 7.415909e+01 1.312045e+02 1.882500e+02
7.225000e+01 1.379318e+02 2.036136e+02 7.881818e+01 1.445000e+02 2.101818e+02 8.538636e+01 1.510682e+02 2.167500e+02
</DataArray>
<DataArray Name="mesh_vars/Elements_Id" type="Float64" NumberOfComponents="1" format="ascii">
0.000000e+00
1.000000e+00
2.000000e+00
3.000000e+00
4.000000e+00
5.000000e+00
6.000000e+00
7.000000e+00
8.000000e+00
9.000000e+00
1.000000e+01
1.100000e+01
1.200000e+01
1.300000e+01
1.400000e+01
1.500000e+01
1.600000e+01
1.700000e+01
1.800000e+01
1.900000e+01
2.000000e+01
2.100000e+01
2.200000e+01
2.300000e+01
2.400000e+01
2.500000e+01
2.600000e+01
2.700000e+01
2.800000e+01
2.900000e+01
3.000000e+01
3.100000e+01
3.200000e+01
3.300000e+01
3.400000e+01
3.500000e+01
3.600000e+01
3.700000e+01
3.800000e+01
3.900000e+01
4.000000e+01
4.100000e+01
4.200000e+01
4.300000e+01
4.400000e+01
4.500000e+01
4.600000e+01
4.700000e+01
4.800000e+01
4.900000e+01
5.000000e+01
5.100000e+01
5.200000e+01
5.300000e+01
5.400000e+01
5.500000e+01
5.600000e+01
5.700000e+01
5.800000e+01
5.900000e+01
6.000000e+01
6.100000e+01
6.200000e+01
6.300000e+01
6.400000e+01
6.500000e+01
</DataArray>
<DataArray Name="mesh_vars/Elements_Owner" type="Float64" NumberOfComponents="1" format="ascii">
0.000000e+00
0.000000e+00
0.000000e+00
0.000000e+00
0.000000e+00
0.000000e+00
0.000000e+00
0.000000e+00
0.000000e+00
0.000000e+00
0.000000e+00
0.000000e+00
0.000000e+00
0.000000e+00
0.000000e+00
0.000000e+00
0.000000e+00
0.000000e+00
0.000000e+00
0.000000e+00
0.000000e+00
0.000000e+00
0.000000e+00
0.000000e+00
0.000000e+00
0.000000e+00
0.000000e+00
0.000000e+00
0.000000e+00
0.000000e+00
0.000000e+00
0.000000e+00
0.000000e+00
0.000000e+00
0.000000e+00
0.000000e+00
0.000000e+00
0.000000e+00
0.000000e+00
0.000000e+00
0.000000e+00
0.000000e+00
0.000000e+00
0.000000e+00
0.000000e+00
0.000000e+00
0.000000e+00
0.000000e+00
0.000000e+00
0.000000e+00
0.000000e+00
0.000000e+00
0.000000e+00
0.000000e+00
0.000000e+00
0.000000e+00
0.000000e+00
0.000000e+00
0.000000e+00
0.000000e+00
0.000000e+00
0.000000e+00
0.000000e+00
0.000000e+00
0.000000e+00
0.000000e+00
</DataArray>
<DataArray Name="mesh_vars/Elements_Tag" type="Float64" NumberOfComponents="1" format="ascii">
0.000000e+00
1.000000e+00
2.000000e+00
3.000000e+00
4.000000e+00
5.000000e+00
6.000000e+00
7.000000e+00
8.000000e+00
9.000000e+00
1.000000e+01
1.100000e+01
1.200000e+01
1.300000e+01
1.400000e+01
1.500000e+01
1.600000e+01
1.700000e+01
1.800000e+01
1.900000e+01
2.000000e+01
2.100000e+01
2.200000e+01
2.300000e+01
2.400000e+01
2.500000e+01
2.600000e+01
2.700000e+01
2.800000e+01
2.900000e+01
3.000000e+01
3.100000e+01
3.200000e+01
3.300000e+01
3.400000e+01
3.500000e+01
3.600000e+01
3.700000e+01
3.800000e+01
3.900000e+01
4.000000e+01
4.100000e+01
4.200000e+01
4.300000e+01
4.400000e+01
4.500000e+01
4.600000e+01
4.700000e+01
4.800000e+01
4.900000e+01
5.000000e+01
5.100000e+01
5.200000e+01
5.300000e+01
5.400000e+01
5.500000e+01
5.600000e+01
5.700000e+01
5.800000e+01
5.900000e+01
6.000000e+01
6.100000e+01
6.200000e+01
6.300000e+01
6.400000e+01
6.500000e+01
</DataArray>
</CellData>
</Piece>
</UnstructuredGrid>
</VTKFile>
