<?xml version="1.0"?>
<VTKFile type="UnstructuredGrid" version="0.1">
<UnstructuredGrid>
<FieldData>
<DataArray Name="TIME" type="Float64" format="ascii" NumberOfTuples="1">
0.000000e+00
</DataArray>
</FieldData>
<FieldData>
<DataArray Name="CYCLE" type="Int32" format="ascii" NumberOfTuples="1">
0
</DataArray>
</FieldData>
<Piece NumberOfPoints="48" NumberOfCells="28">
<Points>
<DataArray NumberOfComponents="3" type="Float64" format="ascii">
-2.500000e+00 1.200000e+00 0.000000e+00
-1.545455e+00 1.200000e+00 0.000000e+00
-5.909091e-01 1.200000e+00 0.000000e+00
3.636364e-01 1.200000e+00 0.000000e+00
1.318182e+00 1.200000e+00 0.000000e+00
2.272727e+00 1.200000e+00 0.000000e+00
3.227273e+00 1.200000e+00 0.000000e+00
4.181818e+00 1.200000e+00 0.000000e+00
5.136364e+00 1.200000e+00 0.000000e+00
6.090909e+00 1.200000e+00 0.000000e+00
7.045455e+00 1.200000e+00 0.000000e+00
8.000000e+00 1.200000e+00 0.000000e+00
-2.500000e+00 2.066667e+00 0.000000e+00
-1.545455e+00 2.066667e+00 0.000000e+00
-5.909091e-01 2.066667e+00 0.000000e+00
3.636364e-01 2.066667e+00 0.000000e+00
1.318182e+00 2.066667e+00 0.000000e+00
2.272727e+00 2.066667e+00 0.000000e+00
3.227273e+00 2.066667e+00 0.000000e+00
4.181818e+00 2.066667e+00 0.000000e+00
5.136364e+00 2.066667e+00 0.000000e+00
6.090909e+00 2.066667e+00 0.000000e+00
7.045455e+00 2.066667e+00 0.000000e+00
8.000000e+00 2.066667e+00 0.000000e+00
-2.500000e+00 2.933333e+00 0.000000e+00
-1.545455e+00 2.933333e+00 0.000000e+00
-5.909091e-01 2.933333e+00 0.000000e+00
3.636364e-01 2.933333e+00 0.000000e+00
1.318182e+00 2.933333e+00 0.000000e+00
2.272727e+00 2.933333e+00 0.000000e+00
3.227273e+00 2.933333e+00 0.000000e+00
4.181818e+00 2.933333e+00 0.000000e+00
5.136364e+00 2.933333e+00 0.000000e+00
6.090909e+00 2.933333e+00 0.000000e+00
7.045455e+00 2.933333e+00 0.000000e+00
8.000000e+00 2.933333e+00 0.000000e+00
-2.500000e+00 3.800000e+00 0.000000e+00
-1.545455e+00 3.800000e+00 0.000000e+00
-5.909091e-01 3.800000e+00 0.000000e+00
3.636364e-01 3.800000e+00 0.000000e+00
1.318182e+00 3.800000e+00 0.000000e+00
2.272727e+00 3.800000e+00 0.000000e+00
3.227273e+00 3.800000e+00 0.000000e+00
4.181818e+00 3.800000e+00 0.000000e+00
5.136364e+00 3.800000e+00 0.000000e+00
6.090909e+00 3.800000e+00 0.000000e+00
7.045455e+00 3.800000e+00 0.000000e+00
8.000000e+00 3.800000e+00 0.000000e+00
</DataArray>
</Points>
<Cells>
<DataArray Name="connectivity" type="Int32" format="ascii">
0 12
12 24
24 36
11 23
23 35
35 47
0 1
1 2
2 3
3 4
4 5
5 6
6 7
7 8
8 9
9 10
10 11
36 37
37 38
38 39
39 40
40 41
41 42
42 43
43 44
44 45
45 46
46 47
</DataArray>
<DataArray Name="offsets" type="Int32" format="ascii">
2
4
6
8
10
12
14
16
18
20
22
24
26
28
30
32
34
36
38
40
42
44
46
48
50
52
54
56
</DataArray>
<DataArray Name="types" type="UInt8" format="ascii">
3
3
3
3
3
3
3
3
3
3
3
3
3
3
3
3
3
3
3
3
3
3
3
3
3
3
3
3
</DataArray>
</Cells>
<CellData>
<DataArray Name="data" type="Float64" NumberOfComponents="9" format="ascii">
-2.750000e+01 -5.250000e+01 0.000000e+00 -3.000000e+01 -5.500000e+01 0.000000e+00 0.000000e+00 0.000000e+00 0.000000e+00
-2.750000e+01 -5.250000e+01 0.000000e+00 -3.000000e+01 -5.500000e+01 0.000000e+00 0.000000e+00 0.000000e+00 0.000000e+00
-2.750000e+01 -5.250000e+01 0.000000e+00 -3.000000e+01 -5.500000e+01 0.000000e+00 0.000000e+00 0.000000e+00 0.000000e+00
8.800000e+01 1.680000e+02 0.000000e+00 9.600000e+01 1.760000e+02 0.000000e+00 0.000000e+00 0.000000e+00 0.000000e+00
8.800000e+01 1.680000e+02 0.000000e+00 9.600000e+01 1.760000e+02 0.000000e+00 0.000000e+00 0.000000e+00 0.000000e+00
8.800000e+01 1.680000e+02 0.000000e+00 9.600000e+01 1.760000e+02 0.000000e+00 0.000000e+00 0.000000e+00 0.000000e+00
-2.225000e+01 -4.247727e+01 0.000000e+00 -2.427273e+01 -4.450000e+01 0.000000e+00 0.000000e+00 0.000000e+00 0.000000e+00
-1.175000e+01 -2.243182e+01 0.000000e+00 -1.281818e+01 -2.350000e+01 0.000000e+00 0.000000e+00 0.000000e+00 0.000000e+00
-1.250000e+00 -2.386364e+00 0.000000e+00 -1.363636e+00 -2.500000e+00 0.000000e+00 0.000000e+00 0.000000e+00 0.000000e+00
9.250000e+00 1.765909e+01 0.000000e+00 1.009091e+01 1.850000e+01 0.000000e+00 0.000000e+00 0.000000e+00 0.000000e+00
1.975000e+01 3.770454e+01 0.000000e+00 2.154545e+01 3.950000e+01 0.000000e+00 0.000000e+00 0.000000e+00 0.000000e+00
3.025000e+01 5.775000e+01 0.000000e+00 3.300000e+01 6.050000e+01 0.000000e+00 0.000000e+00 0.000000e+00 0.000000e+00
4.075000e+01 7.779546e+01 0.000000e+00 4.445454e+01 8.150000e+01 0.000000e+00 0.000000e+00 0.000000e+00 0.000000e+00
5.125000e+01 9.784091e+01 0.000000e+00 5.590909e+01 1.025000e+02 0.000000e+00 0.000000e+00 0.000000e+00 0.000000e+00
6.175000e+01 1.178864e+02 0.000000e+00 6.736364e+01 1.235000e+02 0.000000e+00 0.000000e+00 0.000000e+00 0.000000e+00
7.225000e+01 1.379318e+02 0.000000e+00 7.881818e+01 1.445000e+02 0.000000e+00 0.000000e+00 0.000000e+00 0.000000e+00
8.275000e+01 1.579773e+02 0.000000e+00 9.027273e+01 1.655000e+02 0.000000e+00 0.000000e+00 0.000000e+00 0.000000e+00
-2.225000e+01 -4.247727e+01 0.000000e+00 -2.427273e+01 -4.450000e+01 0.000000e+00 0.000000e+00 0.000000e+00 0.000000e+00
-1.175000e+01 -2.243182e+01 0.000000e+00 -1.281818e+01 -2.350000e+01 0.000000e+00 0.000000e+00 0.000000e+00 0.000000e+00
-1.250000e+00 -2.386364e+00 0.000000e+00 -1.363636e+00 -2.500000e+00 0.000000e+00 0.000000e+00 0.000000e+00 0.000000e+00
9.250000e+00 1.765909e+01 0.000000e+00 1.009091e+01 1.850000e+01 0.000000e+00 0.000000e+00 0.000000e+00 0.000000e+00
1.975000e+01 3.770454e+01 0.000000e+00 2.154545e+01 3.950000e+01 0.000000e+00 0.000000e+00 0.000000e+00 0.000000e+00
3.025000e+01 5.775000e+01 0.000000e+00 3.300000e+01 6.050000e+01 0.000000e+00 0.000000e+00 0.000000e+00 0.000000e+00
4.075000e+01 7.779546e+01 0.000000e+00 4.445454e+01 8.150000e+01 0.000000e+00 0.000000e+00 0.000000e+00 0.000000e+00
5.125000e+01 9.784091e+01 0.000000e+00 5.590909e+01 1.025000e+02 0.000000e+00 0.000000e+00 0.000000e+00 0.000000e+00
6.175000e+01 1.178864e+02 0.000000e+00 6.736364e+01 1.235000e+02 0.000000e+00 0.000000e+00 0.000000e+00 0.000000e+00
7.225000e+01 1.379318e+02 0.000000e+00 7.881818e+01 1.445000e+02 0.000000e+00 0.000000e+00 0.000000e+00 0.000000e+00
8.275000e+01 1.579773e+02 0.000000e+00 9.027273e+01 1.655000e+02 0.000000e+00 0.000000e+00 0.000000e+00 0.000000e+00
</DataArray>
<DataArray Name="mesh_vars/FaceElements_Id" type="Float64" NumberOfComponents="1" format="ascii">
0.000000e+00
1.000000e+00
2.000000e+00
3.000000e+00
4.000000e+00
5.000000e+00
6.000000e+00
7.000000e+00
8.000000e+00
9.000000e+00
1.000000e+01
1.100000e+01
1.200000e+01
1.300000e+01
1.400000e+01
1.500000e+01
1.600000e+01
1.700000e+01
1.800000e+01
1.900000e+01
2.000000e+01
2.100000e+01
2.200000e+01
2.300000e+01
2.400000e+01
2.500000e+01
2.600000e+01
2.700000e+01
</DataArray>
<DataArray Name="mesh_vars/FaceElements_Owner" type="Float64" NumberOfComponents="1" format="ascii">
0.000000e+00
0.000000e+00
0.000000e+00
0.000000e+00
0.000000e+00
0.000000e+00
0.000000e+00
0.000000e+00
0.000000e+00
0.000000e+00
0.000000e+00
0.000000e+00
0.000000e+00
0.000000e+00
0.000000e+00
0.000000e+00
0.000000e+00
0.000000e+00
0.000000e+00
0.000000e+00
0.000000e+00
0.000000e+00
0.000000e+00
0.000000e+00
0.000000e+00
0.000000e+00
0.000000e+00
0.000000e+00
</DataArray>
<DataArray Name="mesh_vars/FaceElements_Tag" type="Float64" NumberOfComponents="1" format="ascii">
0.000000e+00
1.000000e+00
2.000000e+00
3.000000e+00
4.000000e+00
5.000000e+00
6.000000e+00
7.000000e+00
8.000000e+00
9.000000e+00
1.000000e+01
1.100000e+01
1.200000e+01
1.300000e+01
1.400000e+01
1.500000e+01
1.600000e+01
1.700000e+01
1.800000e+01
1.900000e+01
2.000000e+01
2.100000e+01
2.200000e+01
2.300000e+01
2.400000e+01
2.500000e+01
2.600000e+01
2.700000e+01
</DataArray>
</CellData>
</Piece>
</UnstructuredGrid>
</VTKFile>
