<?xml version="1.0"?>
<VTKFile type="UnstructuredGrid" version="0.1">
<UnstructuredGrid>
<FieldData>
<DataArray Name="TIME" type="Float64" format="ascii" NumberOfTuples="1">
0.000000e+00
</DataArray>
</FieldData>
<FieldData>
<DataArray Name="CYCLE" type="Int32" format="ascii" NumberOfTuples="1">
0
</DataArray>
</FieldData>
<Piece NumberOfPoints="81" NumberOfCells="24">
<Points>
<DataArray NumberOfComponents="3" type="Float64" format="ascii">
1.000000e+00 5.000000e-01 -0.000000e+00
1.000000e+00 5.000000e-01 1.000000e+00
1.000000e+00 1.000000e+00 5.000000e-01
1.000000e+00 5.000000e-01 5.000000e-01
1.000000e+00 7.500000e-01 7.500000e-01
1.000000e+00 7.500000e-01 2.500000e-01
1.000000e+00 0.000000e+00 5.000000e-01
1.000000e+00 2.500000e-01 2.500000e-01
1.000000e+00 2.500000e-01 7.500000e-01
1.000000e+00 0.000000e+00 1.000000e+00
1.000000e+00 0.000000e+00 7.500000e-01
1.000000e+00 2.500000e-01 1.000000e+00
1.000000e+00 1.000000e+00 -0.000000e+00
1.000000e+00 1.000000e+00 2.500000e-01
1.000000e+00 7.500000e-01 -0.000000e+00
1.000000e+00 0.000000e+00 -0.000000e+00
1.000000e+00 2.500000e-01 -0.000000e+00
1.000000e+00 0.000000e+00 2.500000e-01
1.000000e+00 1.000000e+00 1.000000e+00
1.000000e+00 7.500000e-01 1.000000e+00
1.000000e+00 1.000000e+00 7.500000e-01
5.000000e-01 0.000000e+00 1.000000e+00
0.000000e+00 5.000000e-01 1.000000e+00
5.000000e-01 1.000000e+00 1.000000e+00
2.500000e-01 2.500000e-01 1.000000e+00
2.500000e-01 7.500000e-01 1.000000e+00
5.000000e-01 5.000000e-01 1.000000e+00
7.500000e-01 7.500000e-01 1.000000e+00
7.500000e-01 2.500000e-01 1.000000e+00
0.000000e+00 1.000000e+00 1.000000e+00
0.000000e+00 7.500000e-01 1.000000e+00
2.500000e-01 1.000000e+00 1.000000e+00
0.000000e+00 0.000000e+00 1.000000e+00
2.500000e-01 0.000000e+00 1.000000e+00
0.000000e+00 2.500000e-01 1.000000e+00
7.500000e-01 1.000000e+00 1.000000e+00
7.500000e-01 0.000000e+00 1.000000e+00
5.000000e-01 1.000000e+00 -0.000000e+00
0.000000e+00 1.000000e+00 5.000000e-01
5.000000e-01 1.000000e+00 5.000000e-01
2.500000e-01 1.000000e+00 2.500000e-01
2.500000e-01 1.000000e+00 7.500000e-01
7.500000e-01 1.000000e+00 7.500000e-01
7.500000e-01 1.000000e+00 2.500000e-01
7.500000e-01 1.000000e+00 -0.000000e+00
0.000000e+00 1.000000e+00 7.500000e-01
0.000000e+00 1.000000e+00 -0.000000e+00
2.500000e-01 1.000000e+00 -0.000000e+00
0.000000e+00 1.000000e+00 2.500000e-01
0.000000e+00 5.000000e-01 -0.000000e+00
0.000000e+00 5.000000e-01 5.000000e-01
0.000000e+00 7.500000e-01 2.500000e-01
0.000000e+00 7.500000e-01 7.500000e-01
0.000000e+00 0.000000e+00 5.000000e-01
0.000000e+00 2.500000e-01 7.500000e-01
0.000000e+00 2.500000e-01 2.500000e-01
0.000000e+00 0.000000e+00 -0.000000e+00
0.000000e+00 0.000000e+00 2.500000e-01
0.000000e+00 2.500000e-01 -0.000000e+00
0.000000e+00 0.000000e+00 7.500000e-01
0.000000e+00 7.500000e-01 -0.000000e+00
5.000000e-01 0.000000e+00 -0.000000e+00
5.000000e-01 0.000000e+00 5.000000e-01
2.500000e-01 0.000000e+00 2.500000e-01
2.500000e-01 0.000000e+00 7.500000e-01
7.500000e-01 0.000000e+00 7.500000e-01
7.500000e-01 0.000000e+00 2.500000e-01
7.500000e-01 0.000000e+00 -0.000000e+00
2.500000e-01 0.000000e+00 -0.000000e+00
5.000000e-01 5.000000e-01 -0.000000e+00
2.500000e-01 7.500000e-01 -0.000000e+00
2.500000e-01 2.500000e-01 -0.000000e+00
7.500000e-01 2.500000e-01 -0.000000e+00
7.500000e-01 7.500000e-01 -0.000000e+00
2.500000e-01 2.500000e-01 5.000000e-01
2.500000e-01 5.000000e-01 7.500000e-01
2.500000e-01 5.000000e-01 2.500000e-01
5.000000e-01 5.000000e-01 5.000000e-01
7.500000e-01 5.000000e-01 7.500000e-01
7.500000e-01 5.000000e-01 2.500000e-01
7.500000e-01 7.500000e-01 5.000000e-01
</DataArray>
</Points>
<Cells>
<DataArray Name="connectivity" type="Int32" format="ascii">
0 15 61 6
12 37 2 0
61 0 6 37
0 6 37 1
37 2 0 1
1 9 6 21
18 2 23 1
6 1 21 23
1 6 37 23
2 37 23 1
61 6 21 23
6 61 37 23
21 32 53 22
21 53 49 22
38 21 49 22
61 21 53 49
21 61 38 49
61 23 21 38
23 21 38 22
29 23 38 22
61 37 23 38
37 46 38 49
61 37 38 49
56 61 53 49
</DataArray>
<DataArray Name="offsets" type="Int32" format="ascii">
4
8
12
16
20
24
28
32
36
40
44
48
52
56
60
64
68
72
76
80
84
88
92
96
</DataArray>
<DataArray Name="types" type="UInt8" format="ascii">
10
10
10
10
10
10
10
10
10
10
10
10
10
10
10
10
10
10
10
10
10
10
10
10
</DataArray>
</Cells>
<PointData>
<DataArray Name="data" type="Float64" NumberOfComponents="9" format="ascii">
1.100000e+01 2.100000e+01 3.100000e+01 1.200000e+01 2.200000e+01 3.200000e+01 1.300000e+01 2.300000e+01 3.300000e+01
1.100000e+01 2.100000e+01 3.100000e+01 1.200000e+01 2.200000e+01 3.200000e+01 1.300000e+01 2.300000e+01 3.300000e+01
1.100000e+01 2.100000e+01 3.100000e+01 1.200000e+01 2.200000e+01 3.200000e+01 1.300000e+01 2.300000e+01 3.300000e+01
0.000000e+00 0.000000e+00 0.000000e+00 0.000000e+00 0.000000e+00 0.000000e+00 0.000000e+00 0.000000e+00 0.000000e+00
0.000000e+00 0.000000e+00 0.000000e+00 0.000000e+00 0.000000e+00 0.000000e+00 0.000000e+00 0.000000e+00 0.000000e+00
0.000000e+00 0.000000e+00 0.000000e+00 0.000000e+00 0.000000e+00 0.000000e+00 0.000000e+00 0.000000e+00 0.000000e+00
1.100000e+01 2.100000e+01 3.100000e+01 1.200000e+01 2.200000e+01 3.200000e+01 1.300000e+01 2.300000e+01 3.300000e+01
0.000000e+00 0.000000e+00 0.000000e+00 0.000000e+00 0.000000e+00 0.000000e+00 0.000000e+00 0.000000e+00 0.000000e+00
0.000000e+00 0.000000e+00 0.000000e+00 0.000000e+00 0.000000e+00 0.000000e+00 0.000000e+00 0.000000e+00 0.000000e+00
1.100000e+01 2.100000e+01 3.100000e+01 1.200000e+01 2.200000e+01 3.200000e+01 1.300000e+01 2.300000e+01 3.300000e+01
0.000000e+00 0.000000e+00 0.000000e+00 0.000000e+00 0.000000e+00 0.000000e+00 0.000000e+00 0.000000e+00 0.000000e+00
0.000000e+00 0.000000e+00 0.000000e+00 0.000000e+00 0.000000e+00 0.000000e+00 0.000000e+00 0.000000e+00 0.000000e+00
1.100000e+01 2.100000e+01 3.100000e+01 1.200000e+01 2.200000e+01 3.200000e+01 1.300000e+01 2.300000e+01 3.300000e+01
0.000000e+00 0.000000e+00 0.000000e+00 0.000000e+00 0.000000e+00 0.000000e+00 0.000000e+00 0.000000e+00 0.000000e+00
0.000000e+00 0.000000e+00 0.000000e+00 0.000000e+00 0.000000e+00 0.000000e+00 0.000000e+00 0.000000e+00 0.000000e+00
1.100000e+01 2.100000e+01 3.100000e+01 1.200000e+01 2.200000e+01 3.200000e+01 1.300000e+01 2.300000e+01 3.300000e+01
0.000000e+00 0.000000e+00 0.000000e+00 0.000000e+00 0.000000e+00 0.000000e+00 0.000000e+00 0.000000e+00 0.000000e+00
0.000000e+00 0.000000e+00 0.000000e+00 0.000000e+00 0.000000e+00 0.000000e+00 0.000000e+00 0.000000e+00 0.000000e+00
1.100000e+01 2.100000e+01 3.100000e+01 1.200000e+01 2.200000e+01 3.200000e+01 1.300000e+01 2.300000e+01 3.300000e+01
0.000000e+00 0.000000e+00 0.000000e+00 0.000000e+00 0.000000e+00 0.000000e+00 0.000000e+00 0.000000e+00 0.000000e+00
0.000000e+00 0.000000e+00 0.000000e+00 0.000000e+00 0.000000e+00 0.000000e+00 0.000000e+00 0.000000e+00 0.000000e+00
5.500000e+00 1.050000e+01 1.550000e+01 6.000000e+00 1.100000e+01 1.600000e+01 6.500000e+00 1.150000e+01 1.650000e+01
0.000000e+00 0.000000e+00 0.000000e+00 0.000000e+00 0.000000e+00 0.000000e+00 0.000000e+00 0.000000e+00 0.000000e+00
5.500000e+00 1.050000e+01 1.550000e+01 6.000000e+00 1.100000e+01 1.600000e+01 6.500000e+00 1.150000e+01 1.650000e+01
0.000000e+00 0.000000e+00 0.000000e+00 0.000000e+00 0.000000e+00 0.000000e+00 0.000000e+00 0.000000e+00 0.000000e+00
0.000000e+00 0.000000e+00 0.000000e+00 0.000000e+00 0.000000e+00 0.000000e+00 0.000000e+00 0.000000e+00 0.000000e+00
0.000000e+00 0.000000e+00 0.000000e+00 0.000000e+00 0.000000e+00 0.000000e+00 0.000000e+00 0.000000e+00 0.000000e+00
0.000000e+00 0.000000e+00 0.000000e+00 0.000000e+00 0.000000e+00 0.000000e+00 0.000000e+00 0.000000e+00 0.000000e+00
0.000000e+00 0.000000e+00 0.000000e+00 0.000000e+00 0.000000e+00 0.000000e+00 0.000000e+00 0.000000e+00 0.000000e+00
0.000000e+00 0.000000e+00 0.000000e+00 0.000000e+00 0.000000e+00 0.000000e+00 0.000000e+00 0.000000e+00 0.000000e+00
0.000000e+00 0.000000e+00 0.000000e+00 0.000000e+00 0.000000e+00 0.000000e+00 0.000000e+00 0.000000e+00 0.000000e+00
0.000000e+00 0.000000e+00 0.000000e+00 0.000000e+00 0.000000e+00 0.000000e+00 0.000000e+00 0.000000e+00 0.000000e+00
0.000000e+00 0.000000e+00 0.000000e+00 0.000000e+00 0.000000e+00 0.000000e+00 0.000000e+00 0.000000e+00 0.000000e+00
0.000000e+00 0.000000e+00 0.000000e+00 0.000000e+00 0.000000e+00 0.000000e+00 0.000000e+00 0.000000e+00 0.000000e+00
0.000000e+00 0.000000e+00 0.000000e+00 0.000000e+00 0.000000e+00 0.000000e+00 0.000000e+00 0.000000e+00 0.000000e+00
0.000000e+00 0.000000e+00 0.000000e+00 0.000000e+00 0.000000e+00 0.000000e+00 0.000000e+00 0.000000e+00 0.000000e+00
0.000000e+00 0.000000e+00 0.000000e+00 0.000000e+00 0.000000e+00 0.000000e+00 0.000000e+00 0.000000e+00 0.000000e+00
5.500000e+00 1.050000e+01 1.550000e+01 6.000000e+00 1.100000e+01 1.600000e+01 6.500000e+00 1.150000e+01 1.650000e+01
0.000000e+00 0.000000e+00 0.000000e+00 0.000000e+00 0.000000e+00 0.000000e+00 0.000000e+00 0.000000e+00 0.000000e+00
0.000000e+00 0.000000e+00 0.000000e+00 0.000000e+00 0.000000e+00 0.000000e+00 0.000000e+00 0.000000e+00 0.000000e+00
0.000000e+00 0.000000e+00 0.000000e+00 0.000000e+00 0.000000e+00 0.000000e+00 0.000000e+00 0.000000e+00 0.000000e+00
0.000000e+00 0.000000e+00 0.000000e+00 0.000000e+00 0.000000e+00 0.000000e+00 0.000000e+00 0.000000e+00 0.000000e+00
0.000000e+00 0.000000e+00 0.000000e+00 0.000000e+00 0.000000e+00 0.000000e+00 0.000000e+00 0.000000e+00 0.000000e+00
0.000000e+00 0.000000e+00 0.000000e+00 0.000000e+00 0.000000e+00 0.000000e+00 0.000000e+00 0.000000e+00 0.000000e+00
0.000000e+00 0.000000e+00 0.000000e+00 0.000000e+00 0.000000e+00 0.000000e+00 0.000000e+00 0.000000e+00 0.000000e+00
0.000000e+00 0.000000e+00 0.000000e+00 0.000000e+00 0.000000e+00 0.000000e+00 0.000000e+00 0.000000e+00 0.000000e+00
0.000000e+00 0.000000e+00 0.000000e+00 0.000000e+00 0.000000e+00 0.000000e+00 0.000000e+00 0.000000e+00 0.000000e+00
0.000000e+00 0.000000e+00 0.000000e+00 0.000000e+00 0.000000e+00 0.000000e+00 0.000000e+00 0.000000e+00 0.000000e+00
0.000000e+00 0.000000e+00 0.000000e+00 0.000000e+00 0.000000e+00 0.000000e+00 0.000000e+00 0.000000e+00 0.000000e+00
0.000000e+00 0.000000e+00 0.000000e+00 0.000000e+00 0.000000e+00 0.000000e+00 0.000000e+00 0.000000e+00 0.000000e+00
0.000000e+00 0.000000e+00 0.000000e+00 0.000000e+00 0.000000e+00 0.000000e+00 0.000000e+00 0.000000e+00 0.000000e+00
0.000000e+00 0.000000e+00 0.000000e+00 0.000000e+00 0.000000e+00 0.000000e+00 0.000000e+00 0.000000e+00 0.000000e+00
0.000000e+00 0.000000e+00 0.000000e+00 0.000000e+00 0.000000e+00 0.000000e+00 0.000000e+00 0.000000e+00 0.000000e+00
0.000000e+00 0.000000e+00 0.000000e+00 0.000000e+00 0.000000e+00 0.000000e+00 0.000000e+00 0.000000e+00 0.000000e+00
0.000000e+00 0.000000e+00 0.000000e+00 0.000000e+00 0.000000e+00 0.000000e+00 0.000000e+00 0.000000e+00 0.000000e+00
0.000000e+00 0.000000e+00 0.000000e+00 0.000000e+00 0.000000e+00 0.000000e+00 0.000000e+00 0.000000e+00 0.000000e+00
0.000000e+00 0.000000e+00 0.000000e+00 0.000000e+00 0.000000e+00 0.000000e+00 0.000000e+00 0.000000e+00 0.000000e+00
0.000000e+00 0.000000e+00 0.000000e+00 0.000000e+00 0.000000e+00 0.000000e+00 0.000000e+00 0.000000e+00 0.000000e+00
0.000000e+00 0.000000e+00 0.000000e+00 0.000000e+00 0.000000e+00 0.000000e+00 0.000000e+00 0.000000e+00 0.000000e+00
0.000000e+00 0.000000e+00 0.000000e+00 0.000000e+00 0.000000e+00 0.000000e+00 0.000000e+00 0.000000e+00 0.000000e+00
0.000000e+00 0.000000e+00 0.000000e+00 0.000000e+00 0.000000e+00 0.000000e+00 0.000000e+00 0.000000e+00 0.000000e+00
5.500000e+00 1.050000e+01 1.550000e+01 6.000000e+00 1.100000e+01 1.600000e+01 6.500000e+00 1.150000e+01 1.650000e+01
0.000000e+00 0.000000e+00 0.000000e+00 0.000000e+00 0.000000e+00 0.000000e+00 0.000000e+00 0.000000e+00 0.000000e+00
0.000000e+00 0.000000e+00 0.000000e+00 0.000000e+00 0.000000e+00 0.000000e+00 0.000000e+00 0.000000e+00 0.000000e+00
0.000000e+00 0.000000e+00 0.000000e+00 0.000000e+00 0.000000e+00 0.000000e+00 0.000000e+00 0.000000e+00 0.000000e+00
0.000000e+00 0.000000e+00 0.000000e+00 0.000000e+00 0.000000e+00 0.000000e+00 0.000000e+00 0.000000e+00 0.000000e+00
0.000000e+00 0.000000e+00 0.000000e+00 0.000000e+00 0.000000e+00 0.000000e+00 0.000000e+00 0.000000e+00 0.000000e+00
0.000000e+00 0.000000e+00 0.000000e+00 0.000000e+00 0.000000e+00 0.000000e+00 0.000000e+00 0.000000e+00 0.000000e+00
0.000000e+00 0.000000e+00 0.000000e+00 0.000000e+00 0.000000e+00 0.000000e+00 0.000000e+00 0.000000e+00 0.000000e+00
0.000000e+00 0.000000e+00 0.000000e+00 0.000000e+00 0.000000e+00 0.000000e+00 0.000000e+00 0.000000e+00 0.000000e+00
0.000000e+00 0.000000e+00 0.000000e+00 0.000000e+00 0.000000e+00 0.000000e+00 0.000000e+00 0.000000e+00 0.000000e+00
0.000000e+00 0.000000e+00 0.000000e+00 0.000000e+00 0.000000e+00 0.000000e+00 0.000000e+00 0.000000e+00 0.000000e+00
0.000000e+00 0.000000e+00 0.000000e+00 0.000000e+00 0.000000e+00 0.000000e+00 0.000000e+00 0.000000e+00 0.000000e+00
0.000000e+00 0.000000e+00 0.000000e+00 0.000000e+00 0.000000e+00 0.000000e+00 0.000000e+00 0.000000e+00 0.000000e+00
0.000000e+00 0.000000e+00 0.000000e+00 0.000000e+00 0.000000e+00 0.000000e+00 0.000000e+00 0.000000e+00 0.000000e+00
0.000000e+00 0.000000e+00 0.000000e+00 0.000000e+00 0.000000e+00 0.000000e+00 0.000000e+00 0.000000e+00 0.000000e+00
0.000000e+00 0.000000e+00 0.000000e+00 0.000000e+00 0.000000e+00 0.000000e+00 0.000000e+00 0.000000e+00 0.000000e+00
0.000000e+00 0.000000e+00 0.000000e+00 0.000000e+00 0.000000e+00 0.000000e+00 0.000000e+00 0.000000e+00 0.000000e+00
0.000000e+00 0.000000e+00 0.000000e+00 0.000000e+00 0.000000e+00 0.000000e+00 0.000000e+00 0.000000e+00 0.000000e+00
0.000000e+00 0.000000e+00 0.000000e+00 0.000000e+00 0.000000e+00 0.000000e+00 0.000000e+00 0.000000e+00 0.000000e+00
0.000000e+00 0.000000e+00 0.000000e+00 0.000000e+00 0.000000e+00 0.000000e+00 0.000000e+00 0.000000e+00 0.000000e+00
</DataArray>
</PointData>
</Piece>
</UnstructuredGrid>
</VTKFile>
