<?xml version="1.0"?>
<VTKFile type="UnstructuredGrid" version="0.1">
<UnstructuredGrid>
<FieldData>
<DataArray Name="TIME" type="Float64" format="ascii" NumberOfTuples="1">
0.000000e+00
</DataArray>
</FieldData>
<FieldData>
<DataArray Name="CYCLE" type="Int32" format="ascii" NumberOfTuples="1">
0
</DataArray>
</FieldData>
<Piece NumberOfPoints="9" NumberOfCells="4">
<Points>
<DataArray NumberOfComponents="3" type="Float64" format="ascii">
0.000000e+00 0.000000e+00 0.000000e+00
5.000000e-01 0.000000e+00 0.000000e+00
1.000000e+00 0.000000e+00 0.000000e+00
0.000000e+00 5.000000e-01 0.000000e+00
5.000000e-01 5.000000e-01 0.000000e+00
1.000000e+00 5.000000e-01 0.000000e+00
0.000000e+00 1.000000e+00 0.000000e+00
5.000000e-01 1.000000e+00 0.000000e+00
1.000000e+00 1.000000e+00 0.000000e+00
</DataArray>
</Points>
<Cells>
<DataArray Name="connectivity" type="Int32" format="ascii">
0 1 4 3
1 2 5 4
3 4 7 6
4 5 8 7
</DataArray>
<DataArray Name="offsets" type="Int32" format="ascii">
4
8
12
16
</DataArray>
<DataArray Name="types" type="UInt8" format="ascii">
9
9
9
9
</DataArray>
</Cells>
<PointData>
<DataArray Name="mesh_vars/Nodes_Id" type="Float64" NumberOfComponents="1" format="ascii">
0.000000e+00
1.000000e+00
2.000000e+00
3.000000e+00
4.000000e+00
5.000000e+00
6.000000e+00
7.000000e+00
8.000000e+00
</DataArray>
<DataArray Name="mesh_vars/Nodes_Tag" type="Float64" NumberOfComponents="1" format="ascii">
0.000000e+00
0.000000e+00
0.000000e+00
0.000000e+00
0.000000e+00
0.000000e+00
0.000000e+00
0.000000e+00
0.000000e+00
</DataArray>
<DataArray Name="mesh_vars/Nodes_gDOF" type="Float64" NumberOfComponents="1" format="ascii">
0.000000e+00
1.000000e+00
2.000000e+00
3.000000e+00
8.000000e+00
4.000000e+00
5.000000e+00
6.000000e+00
7.000000e+00
</DataArray>
<DataArray Name="mesh_vars/Nodes_gNI" type="Float64" NumberOfComponents="1" format="ascii">
0.000000e+00
1.000000e+00
2.000000e+00
3.000000e+00
4.000000e+00
5.000000e+00
6.000000e+00
7.000000e+00
8.000000e+00
</DataArray>
<DataArray Name="mesh_vars/Nodes_grDfI" type="Float64" NumberOfComponents="1" format="ascii">
0.000000e+00
-1.000000e+00
1.000000e+00
-1.000000e+00
-1.000000e+00
-1.000000e+00
2.000000e+00
-1.000000e+00
3.000000e+00
</DataArray>
<DataArray Name="mesh_vars/Nodes_grNI" type="Float64" NumberOfComponents="1" format="ascii">
0.000000e+00
-1.000000e+00
1.000000e+00
-1.000000e+00
-1.000000e+00
-1.000000e+00
2.000000e+00
-1.000000e+00
3.000000e+00
</DataArray>
</PointData>
<CellData>
<DataArray Name="data" type="Float64" NumberOfComponents="9" format="ascii">
2.750000e+00 5.250000e+00 0.000000e+00 3.000000e+00 5.500000e+00 0.000000e+00 0.000000e+00 0.000000e+00 0.000000e+00
8.250000e+00 1.575000e+01 0.000000e+00 9.000000e+00 1.650000e+01 0.000000e+00 0.000000e+00 0.000000e+00 0.000000e+00
2.750000e+00 5.250000e+00 0.000000e+00 3.000000e+00 5.500000e+00 0.000000e+00 0.000000e+00 0.000000e+00 0.000000e+00
8.250000e+00 1.575000e+01 0.000000e+00 9.000000e+00 1.650000e+01 0.000000e+00 0.000000e+00 0.000000e+00 0.000000e+00
</DataArray>
<DataArray Name="mesh_vars/Elements_Color" type="Float64" NumberOfComponents="1" format="ascii">
0.000000e+00
0.000000e+00
0.000000e+00
0.000000e+00
</DataArray>
<DataArray Name="mesh_vars/Elements_Id" type="Float64" NumberOfComponents="1" format="ascii">
0.000000e+00
0.000000e+00
0.000000e+00
0.000000e+00
</DataArray>
<DataArray Name="mesh_vars/Elements_Owner" type="Float64" NumberOfComponents="1" format="ascii">
0.000000e+00
0.000000e+00
0.000000e+00
0.000000e+00
</DataArray>
<DataArray Name="mesh_vars/Elements_Tag" type="Float64" NumberOfComponents="1" format="ascii">
0.000000e+00
0.000000e+00
0.000000e+00
0.000000e+00
</DataArray>
</CellData>
</Piece>
</UnstructuredGrid>
</VTKFile>
